# vtk DataFile Version 5.1
vtk output
ASCII
DATASET POLYDATA
POINTS 252 float
0.063659 -0.411557 0.32114 0.045875 -0.450877 0.273554 0.056994 0.214943 0.410065 
0.191845 -0.326062 0.274388 0.247338 0.190079 0.334177 0.053256 0.166924 0.365613 
0.195736 0.277877 0.360891 -0.065011 -0.269254 0.34227 -0.096984 -0.343451 0.300209 
0.294012 -0.409362 0.166307 0.67725 0.023595 0.166682 0.729766 -0.076975 0.121837 
0.060286 0.291374 0.399602 0.251471 -0.244324 0.1804 -0.027889 -0.222618 0.22511 
0.09872 -0.32883 0.268012 -0.067159 -0.219228 0.310485 0.288507 -0.331929 0.23601 
-0.242504 -0.229089 0.264487 0.383397 -0.329425 0.124657 -0.064647 0.163368 0.396916 
0.840261 -0.066093 0.066315 0.667445 -0.054201 0.164233 -0.121396 -0.370341 0.231841 
0.811269 -0.002992 0.093302 0.433603 -0.367197 0.05321 0.16447 -0.464512 0.228847 
0.276876 0.148173 0.186462 0.102033 -0.315592 0.16209 0.385286 0.295728 0.238208 
-0.263138 -0.141738 0.297145 0.269744 0.345755 0.234259 0.84051 0.042006 0.0786 
0.014855 -0.432777 0.155531 0.615358 0.046017 0.087529 0.108229 -0.457544 0.14341 
0.778648 0.088427 0.083582 0.038041 -0.390018 0.132004 -0.225225 -0.116053 0.257598 
0.083429 -0.409543 0.122522 -0.100735 0.05588 0.303256 0.598821 -0.022043 0.086804 
0.25903 -0.437448 0.055411 0.359864 0.199696 0.19736 -0.345257 -0.069889 0.265622 
0.202684 0.130969 0.271124 -0.166221 -0.288023 0.171489 0.479225 -0.194641 0.036367 
0.652459 -0.095254 -0.017498 -0.273531 -0.034451 0.2291 -0.112272 0.053825 0.231417 
0.682068 -0.124493 0.021921 0.367863 -0.225947 0.079666 0.672281 0.116832 0.037708 
-0.108745 -0.222789 0.174802 0.269502 0.105571 0.168224 0.292461 -0.081362 0.11755 
0.129942 0.194943 0.176431 -0.158372 0.212317 0.309517 0.113969 0.350984 0.291465 
0.273307 0.14707 0.147854 -0.057219 0.291755 0.286979 0.419294 0.131339 0.125318 
0.073384 0.185668 0.259474 0.210142 0.375402 0.148706 0.306533 0.002799 0.123325 
0.436851 -0.0789 0.056491 0.254665 -0.398604 -0.032156 0.137546 -0.156533 0.09435 
0.208641 0.090814 0.145163 0.291392 -0.18554 0.088804 0.247043 -0.017425 0.106247 
0.887762 0.096825 -0.08653 0.072135 0.283915 0.19495 0.457889 0.172356 0.139887 
0.504499 -0.314766 -0.007188 -0.322624 -0.1661 0.237393 0.304933 -0.214921 0.039027 
0.444988 0.000483 0.042144 0.330425 0.389305 0.149919 0.038404 0.289812 0.251303 
-0.408569 -0.107006 0.139526 0.512491 0.186731 0.043774 0.211496 -0.154555 0.069912 
-0.221259 0.055237 0.262121 0.814687 -0.081398 -0.123166 -0.003278 -0.084701 0.125375 
0.498161 -0.143171 -0.026487 0.529737 -0.096571 -0.001427 0.499294 0.100472 0.045143 
0.382744 -0.369949 -0.135457 -0.117908 0.11505 0.170683 0.076216 0.18012 0.111373 
-0.290456 -0.056667 0.139947 0.031923 0.064032 0.163641 0.500202 0.263705 0.133688 
-0.268186 -0.154104 0.208372 0.263349 0.190106 0.112755 -0.220726 0.165812 0.183186 
0.184455 0.26334 0.115558 0.125837 -0.292035 0.099797 -0.026463 -0.172776 0.049136 
0.430049 0.370034 0.128932 0.27009 -0.197424 -0.013738 -0.244085 0.120574 0.251715 
0.293664 -0.25741 -0.046523 0.193011 -0.220309 -0.134021 0.405705 -0.395826 -0.05562 
0.812844 0.147655 -0.069237 0.51924 -0.197875 -0.133096 0.222941 0.342658 0.097528 
0.252414 0.210818 0.060454 0.248249 -0.348248 -0.060257 -0.242787 0.000682 0.147023 
0.516925 0.243002 -0.045481 0.108154 -0.207269 -0.006144 0.491393 -0.274865 -0.151646 
-0.78712 0.178319 0.201611 0.385991 0.329146 -0.049889 -0.019123 -0.226801 -0.093799 
0.296258 0.305244 0.038341 0.81189 -0.026543 -0.205191 -0.109096 0.095101 0.105284 
0.584236 -0.0892 -0.128552 0.594028 0.15066 -0.099164 -0.133665 -0.091736 0.054496 
0.895046 -0.016328 -0.119743 0.34245 0.399986 0.047469 0.847501 0.094674 -0.197351 
0.693626 0.165451 -0.131888 0.143377 0.263887 -0.06879 -0.420691 -0.052423 0.023612 
-0.35019 -0.016236 0.150361 -0.126091 -0.177274 -0.055175 0.325124 -0.274173 -0.129609 
-0.383386 0.045326 0.026003 -0.024254 0.251686 0.022374 0.471443 0.355845 -0.009234 
0.488923 -0.117346 -0.226958 -0.839839 -0.189871 0.081026 0.590025 -0.038502 -0.173733 
0.676577 0.066271 -0.197197 0.231533 0.279251 -0.003796 0.699408 -0.033325 -0.207127 
-0.199483 0.060146 0.02462 0.437449 -0.257875 -0.203629 -0.367836 -0.04684 0.018073 
-0.780192 0.259552 0.039622 -0.846789 0.133972 0.126017 -0.374016 0.045469 0.105058 
0.444913 0.27653 -0.124409 -0.799008 0.118316 0.145569 -0.452757 0.227658 0.069459 
-0.203158 -0.066821 -0.021239 -0.748484 0.196031 0.057152 -0.482795 -0.241767 -0.060129 
0.274829 -0.206228 -0.211163 -0.317561 -0.12669 -0.036098 -0.351088 -0.204401 -0.06294 
-0.803844 -0.312912 0.121026 -0.325969 0.13648 0.034234 0.26706 0.245014 -0.168004 
-0.456354 -0.186861 -0.015442 -0.755481 -0.169586 -0.019062 -0.240986 0.059065 -0.091446 
-0.490057 0.106313 -0.009516 0.392153 -0.194695 -0.23712 -0.163309 0.198595 -0.035275 
-0.297233 0.221691 0.021128 0.127169 -0.196548 -0.17769 -0.041496 0.287129 -0.107426 
-0.140668 -0.16368 -0.149942 -0.800916 -0.296013 -0.005789 -0.451257 0.169377 0.071834 
0.556145 0.042627 -0.202354 -0.854739 -0.192613 -0.020119 -0.685178 -0.144138 -0.049915 
0.34497 0.171934 -0.235364 -0.62205 -0.21225 -0.038297 0.37678 -0.064476 -0.279416 
0.161937 -0.037172 -0.235009 0.463758 0.181851 -0.198886 0.252625 -0.11929 -0.258732 
-0.231389 -0.23741 -0.134627 -0.594436 0.163406 0.037659 0.076751 -0.120733 -0.310947 
0.177382 0.117171 -0.205339 -0.55243 -0.24519 -0.120966 -0.751705 0.149233 0.005736 
-0.446648 0.26018 0.015462 0.154479 0.213366 -0.146964 -0.748052 -0.234849 -0.071547 
0.317098 0.044726 -0.259661 0.052271 0.295806 -0.101803 -0.814344 -0.151915 -0.022844 
-0.226485 -0.006124 -0.10049 -0.458064 -0.084115 -0.060969 -0.023824 -0.219242 -0.199273 
-0.84732 -0.289294 -0.01129 -0.833662 0.245685 0.191013 -0.490595 0.122808 -0.069287 
-0.252083 -0.226895 -0.243702 -0.493013 -0.086348 -0.130059 -0.665303 0.268556 0.013505 
-0.23416 0.301007 -0.041137 -0.474333 0.256816 -0.042108 -0.392617 0.117713 -0.155162 
-0.852125 -0.158506 -0.125877 -0.444294 -0.232175 -0.136514 -0.873345 0.175796 -0.040634 
-0.371954 -0.021766 -0.171073 0.124285 0.123602 -0.222873 -0.381183 0.089892 -0.066876 
-0.287665 0.028936 -0.210264 -0.111143 -0.20434 -0.285517 -0.588226 -0.198577 -0.189854 
-0.478624 0.212921 -0.089501 -0.039779 0.294601 -0.236081 -0.627635 -0.089476 -0.118214 
-0.795872 -0.239592 -0.122666 -0.594784 0.129149 -0.080179 -0.261021 0.31271 -0.126821 
-0.585668 0.2711 -0.067356 -0.475954 -0.169531 -0.17067 -0.881846 0.226652 -0.06901 
-0.641846 -0.123155 -0.175787 -0.605629 0.213395 -0.102676 -0.126656 0.307145 -0.143306 
-0.725968 0.186119 -0.07197 -0.439583 -0.105273 -0.18851 -0.339922 -0.166538 -0.278113 
-0.760029 0.243299 -0.046339 0.045436 0.181753 -0.305057 -0.326611 -0.089193 -0.303152 
-0.348601 0.276577 -0.163406 -0.293421 -0.004653 -0.291468 0.076357 0.254374 -0.217711 
-0.286113 0.088461 -0.228708 0.048328 -0.040508 -0.352263 -0.318381 0.190642 -0.253088 
-0.167109 0.318 -0.239399 -0.096743 0.237128 -0.359994 -0.125393 -0.15644 -0.373751 
-0.070264 -0.033978 -0.416773 -0.02221 0.089313 -0.35594 -0.225948 0.282688 -0.291902 
-0.20093 -0.107807 -0.409041 -0.25576 -0.027183 -0.389339 -0.191997 0.195446 -0.387701 
-0.155949 0.01502 -0.432608 -0.211375 0.093191 -0.366394 -0.285345 0.056871 0.124971 

POLYGONS 501 1500
OFFSETS vtktypeint64
0 3 6 9 12 15 18 21 24 
27 30 33 36 39 42 45 48 51 
54 57 60 63 66 69 72 75 78 
81 84 87 90 93 96 99 102 105 
108 111 114 117 120 123 126 129 132 
135 138 141 144 147 150 153 156 159 
162 165 168 171 174 177 180 183 186 
189 192 195 198 201 204 207 210 213 
216 219 222 225 228 231 234 237 240 
243 246 249 252 255 258 261 264 267 
270 273 276 279 282 285 288 291 294 
297 300 303 306 309 312 315 318 321 
324 327 330 333 336 339 342 345 348 
351 354 357 360 363 366 369 372 375 
378 381 384 387 390 393 396 399 402 
405 408 411 414 417 420 423 426 429 
432 435 438 441 444 447 450 453 456 
459 462 465 468 471 474 477 480 483 
486 489 492 495 498 501 504 507 510 
513 516 519 522 525 528 531 534 537 
540 543 546 549 552 555 558 561 564 
567 570 573 576 579 582 585 588 591 
594 597 600 603 606 609 612 615 618 
621 624 627 630 633 636 639 642 645 
648 651 654 657 660 663 666 669 672 
675 678 681 684 687 690 693 696 699 
702 705 708 711 714 717 720 723 726 
729 732 735 738 741 744 747 750 753 
756 759 762 765 768 771 774 777 780 
783 786 789 792 795 798 801 804 807 
810 813 816 819 822 825 828 831 834 
837 840 843 846 849 852 855 858 861 
864 867 870 873 876 879 882 885 888 
891 894 897 900 903 906 909 912 915 
918 921 924 927 930 933 936 939 942 
945 948 951 954 957 960 963 966 969 
972 975 978 981 984 987 990 993 996 
999 1002 1005 1008 1011 1014 1017 1020 1023 
1026 1029 1032 1035 1038 1041 1044 1047 1050 
1053 1056 1059 1062 1065 1068 1071 1074 1077 
1080 1083 1086 1089 1092 1095 1098 1101 1104 
1107 1110 1113 1116 1119 1122 1125 1128 1131 
1134 1137 1140 1143 1146 1149 1152 1155 1158 
1161 1164 1167 1170 1173 1176 1179 1182 1185 
1188 1191 1194 1197 1200 1203 1206 1209 1212 
1215 1218 1221 1224 1227 1230 1233 1236 1239 
1242 1245 1248 1251 1254 1257 1260 1263 1266 
1269 1272 1275 1278 1281 1284 1287 1290 1293 
1296 1299 1302 1305 1308 1311 1314 1317 1320 
1323 1326 1329 1332 1335 1338 1341 1344 1347 
1350 1353 1356 1359 1362 1365 1368 1371 1374 
1377 1380 1383 1386 1389 1392 1395 1398 1401 
1404 1407 1410 1413 1416 1419 1422 1425 1428 
1431 1434 1437 1440 1443 1446 1449 1452 1455 
1458 1461 1464 1467 1470 1473 1476 1479 1482 
1485 1488 1491 1494 1497 1500 
CONNECTIVITY vtktypeint64
119 133 171 169 119 197 106 169 156 
156 169 182 145 134 156 145 156 166 
145 166 138 172 198 219 178 163 191 
191 219 187 155 178 191 155 191 187 
208 155 187 158 155 208 158 208 183 
171 183 214 197 119 171 197 171 214 
169 197 185 198 207 219 191 172 219 
187 219 215 208 187 215 223 208 215 
183 208 201 201 208 230 183 201 214 
214 201 242 185 197 214 185 214 242 
230 208 223 201 230 246 242 201 246 
1 0 8 117 199 148 199 117 147 
95 114 137 97 120 111 95 82 114 
120 97 99 80 63 91 98 80 91 
95 74 82 97 57 99 57 63 73 
58 61 98 58 98 104 95 29 74 
29 43 74 43 4 27 29 4 43 
20 58 104 45 5 63 4 5 45 
5 2 20 5 20 40 4 2 5 
204 227 221 199 147 224 118 137 150 
127 137 118 142 120 118 111 120 142 
57 73 99 110 118 120 99 110 120 
99 73 110 102 95 137 29 95 102 
63 80 73 98 61 80 31 4 29 
6 4 31 58 20 12 6 2 4 
2 6 12 20 2 12 102 137 127 
110 127 118 110 64 127 79 102 127 
64 79 127 110 73 64 29 102 79 
64 31 79 31 29 79 59 31 64 
73 59 64 61 59 80 59 73 80 
59 6 31 12 59 61 58 12 61 
12 6 59 0 17 3 17 0 26 
19 17 9 1 8 23 19 9 42 
33 23 46 33 46 37 28 39 37 
39 28 100 25 19 42 19 25 47 
47 25 75 100 112 39 112 105 134 
90 112 134 90 134 145 116 90 145 
172 159 198 0 1 26 1 23 33 
26 1 33 26 33 35 17 26 9 
9 26 42 39 33 37 35 33 39 
26 35 42 107 25 42 42 35 67 
35 39 67 67 39 112 42 67 107 
75 25 107 90 107 67 116 75 107 
67 112 90 116 107 90 49 96 81 
76 44 81 126 21 85 88 41 78 
78 66 88 66 78 65 56 66 65 
71 56 65 71 68 83 69 68 71 
86 68 94 49 38 96 60 27 97 
22 41 51 30 16 38 30 44 76 
30 38 49 44 30 49 24 11 21 
11 22 51 11 10 22 10 11 24 
244 250 248 125 86 122 68 69 94 
124 174 181 150 124 181 167 160 164 
144 167 164 124 129 141 149 251 135 
108 72 128 129 108 128 53 129 124 
98 251 149 132 104 149 53 108 129 
89 53 124 98 91 251 113 251 91 
91 50 113 104 98 149 84 104 132 
108 32 72 34 53 89 10 53 34 
62 89 82 89 62 78 55 65 62 
53 36 108 160 173 165 60 69 55 
205 189 221 81 44 49 124 141 174 
186 177 192 40 84 93 93 84 132 
50 40 113 113 40 93 94 122 86 
251 113 146 125 122 144 72 126 128 
131 132 149 135 251 146 140 141 143 
129 128 141 149 135 131 195 153 144 
186 192 180 181 192 177 164 212 237 
237 212 206 213 164 237 213 237 239 
250 213 239 205 216 222 189 205 222 
203 189 222 147 203 231 148 224 209 
193 190 236 170 227 167 204 167 227 
204 168 167 168 204 189 152 189 203 
154 152 203 152 154 184 147 154 203 
130 118 161 190 130 161 193 130 190 
136 130 193 136 193 170 136 170 167 
189 152 168 152 173 168 184 173 152 
147 117 154 137 114 150 111 142 130 
130 92 111 136 92 130 189 204 221 
224 148 199 118 150 161 142 118 130 
123 109 140 106 103 115 115 101 119 
125 133 101 88 109 123 88 87 109 
77 103 105 70 103 77 103 83 115 
83 68 115 68 101 115 52 47 70 
13 52 77 70 83 103 100 13 77 
46 96 54 46 76 96 19 47 52 
18 76 46 23 18 46 7 30 18 
8 7 18 7 15 16 246 247 249 
243 246 249 247 250 249 233 235 247 
229 235 233 218 202 225 180 185 238 
202 210 229 196 202 218 194 176 218 
174 138 179 179 182 192 182 180 192 
196 210 202 72 21 126 41 34 89 
51 41 48 131 146 93 38 54 96 
70 56 83 56 71 83 66 56 70 
66 70 47 66 47 87 41 88 48 
21 51 85 76 81 96 101 86 125 
68 86 101 88 66 87 123 48 88 
51 48 85 85 48 123 85 123 121 
123 143 121 133 125 153 123 140 143 
162 157 196 157 171 195 140 138 174 
176 196 218 162 196 176 78 41 89 
62 65 78 71 55 69 65 55 71 
72 32 21 41 10 34 22 10 41 
24 21 32 241 244 248 250 239 248 
232 244 241 237 206 239 190 186 211 
190 211 232 212 200 206 186 161 177 
160 165 212 212 165 200 220 165 188 
200 165 220 165 184 188 144 164 195 
164 160 212 24 32 36 10 24 36 
158 162 155 155 162 178 191 159 172 
163 159 191 116 145 138 109 116 138 
134 106 156 106 115 169 169 115 119 
105 106 134 105 103 106 109 75 116 
87 75 109 100 105 112 77 105 100 
47 75 87 54 37 46 17 19 52 
13 17 52 28 37 54 14 28 54 
13 100 28 3 17 13 15 13 28 
8 18 23 3 13 15 0 3 15 
7 0 15 198 139 175 159 139 198 
159 163 139 14 15 28 16 15 14 
21 11 51 14 54 38 16 14 38 
18 30 76 45 63 57 4 45 27 
231 203 222 227 170 217 170 193 236 
217 170 236 147 231 224 222 226 231 
222 216 226 205 234 216 205 221 234 
234 221 245 221 227 240 221 240 245 
227 217 240 240 217 241 240 241 245 
40 20 84 20 104 84 5 40 50 
63 5 50 63 50 91 27 45 57 
97 27 57 43 27 60 55 62 60 
60 97 111 62 74 43 62 43 60 
74 62 82 94 92 122 94 69 92 
69 60 111 92 69 111 82 89 124 
122 92 136 82 124 114 148 151 117 
167 122 136 7 16 30 244 249 250 
244 243 249 244 238 243 247 235 250 
235 213 250 232 238 244 232 180 238 
211 180 232 229 210 235 210 213 235 
210 195 213 174 179 181 181 179 192 
196 157 195 196 195 210 128 126 121 
128 121 141 141 121 143 141 140 174 
113 93 146 93 132 131 126 85 121 
213 195 164 211 186 180 125 144 153 
0 7 8 243 242 246 246 233 247 
185 242 243 238 185 243 246 230 233 
230 223 233 223 229 233 202 215 225 
215 219 225 219 207 225 223 202 229 
223 215 202 225 207 218 207 194 218 
175 194 207 207 198 175 166 182 179 
166 156 182 180 169 185 182 169 180 
178 162 176 163 176 194 178 176 163 
139 194 175 138 166 179 133 153 171 
157 183 171 157 158 183 158 157 162 
139 163 194 140 109 138 119 101 133 
36 32 108 10 36 53 144 122 167 
114 124 150 117 151 154 173 160 168 
177 150 181 154 151 188 184 154 188 
173 184 165 190 161 186 161 150 177 
151 148 209 188 151 209 220 188 228 
188 209 228 216 200 226 200 220 226 
200 216 206 190 232 236 209 224 228 
228 224 231 220 228 226 228 231 226 
206 216 239 216 234 239 241 236 232 
234 245 239 217 236 241 239 245 248 
245 241 248 135 146 131 52 70 77 
153 195 171 160 167 168 
POINT_DATA 252
SCALARS k float
LOOKUP_TABLE default
0.410247 0.373405 0.242847 0.209346 0.277648 -0.462014 0.305539 0.349677 0.123998 
0.166502 0.946876 0.12875 0.654485 0.305704 0.0582942 -0.705533 0.177193 0.466148 
-0.054444 -0.345957 0.5301 0.786844 1.20258 0.285766 -0.0379723 0.293911 0.395103 
-0.417662 -1.49359 0.204035 0.0872359 -0.182409 0.551906 0.251294 -0.360042 0.0480121 
0.20076 -0.0244128 -0.892144 -0.615701 0.193255 -0.683913 -0.0661439 -0.298859 1.25447 
0.40411 0.148257 -0.000326872 -0.555073 2.023 0.0271106 0.688128 -1.27097 -0.0303147 
0.0821103 0.525061 0.145428 0.241955 0.292483 0.0860846 -2.39229 0.21676 -0.381308 
-1.45612 0.0586256 -0.216592 -0.206834 0.0414265 0.270728 -0.496108 0.0034076 0.00469899 
0.591321 0.309796 0.251716 0.579201 -0.334976 -1.7201 -0.202775 0.147212 -1.06366 
3.92402 -0.298603 -0.593024 0.0244702 0.284015 0.183128 -0.361612 -0.731034 -1.04894 
0.533089 0.0591737 0.104002 0.588838 0.294989 0.536302 -0.970101 -0.823327 0.00492799 
0.023137 0.430642 0.189625 0.363611 0.0953922 0.0231037 -0.906695 -0.258768 0.253084 
0.318157 -0.325499 -0.0154818 -0.185045 0.0505508 -0.300305 -0.246927 -0.0141737 0.286988 
1.73868 -0.323282 0.177101 -0.998805 0.571978 0.311233 -0.822967 -1.41317 0.223648 
0.716567 0.449237 1.11552 0.44129 -0.701065 2.72049 0.316606 0.244298 -0.819583 
1.8492 0.288617 0.594544 0.0347157 1.6089 -0.510815 -0.109743 -0.0988586 0.267383 
0.25019 0.0376482 1.00639 -0.515545 0.693703 -0.16877 0.0635272 1.07398 0.264873 
0.286207 -1.46776 0.249644 -0.0117189 0.25958 -0.0931226 3.48736 0.263494 0.134571 
0.29867 -1.11934 -1.51692 0.0508121 0.0451803 -1.3626 0.0032146 -0.70145 -0.283879 
-1.304 0.222953 0.320838 -0.416852 0.0321521 -0.199633 0.249587 -0.131694 0.23783 
-0.62788 0.140893 0.138991 0.475973 -0.0979415 0.231725 -0.218742 0.0547359 -0.84676 
-0.144551 -0.522375 -1.07351 0.00755322 0.248433 -0.0567329 -1.61385 -0.0547509 -0.0204884 
0.736291 2.24821 -0.634808 0.109218 -0.696773 -0.0621647 0.392883 -0.446073 -0.0430031 
1.72945 -0.407492 0.74175 -0.0942987 -0.125232 -0.0785149 -1.22965 -0.23054 0.378468 
-0.801458 0.101359 0.129428 0.153982 0.359719 0.0579772 0.372199 -0.777672 2.29995 
0.323702 0.286246 -0.233587 -0.306327 -0.0647969 0.0329728 -0.212434 0.130122 -0.0995735 
0.0133397 -0.0937409 0.117654 -0.221579 0.109386 -0.28134 0.221239 0.356783 0.22963 
0.213369 -0.163457 0.218006 0.388133 0.257549 0.698087 0.497982 -0.722648 -0.587078 

FIELD FieldData 7
h 1 252 float
0.121619 3.69021 0.207557 -1.20998 0.691129 -0.892255 4.66202 1.89075 7.53608 
4.42596 1.93873 3.63773 3.81854 -0.676777 1.53354 -2.17069 -0.691362 0.334036 
4.24584 0.236137 2.45742 2.93893 -1.14121 1.82364 2.19078 2.70857 10.1798 
-0.328589 -4.14895 3.27717 1.70862 7.4934 2.6144 0.736378 1.20348 0.628231 
2.42906 0.241084 -0.852434 0.185135 0.0659761 -0.327757 7.29727 0.404649 1.80442 
-0.839787 0.297938 -0.319608 1.75357 3.28077 1.37701 1.61023 -0.2161 1.30013 
4.87265 0.646422 0.165738 -6.48474 2.60555 1.21772 0.388658 1.02861 -0.0833233 
-4.49618 1.49943 -0.0511593 -0.420101 1.30347 0.564152 0.987755 0.377209 0.185623 
6.57423 0.785382 0.233003 4.4242 1.97284 -3.31694 -0.797011 4.76654 0.214562 
0.908279 0.484003 0.771096 1.73798 1.44794 1.64571 -0.0786606 0.151781 0.288497 
1.37416 8.18974 2.42974 0.301154 1.21443 3.31189 -1.88312 -5.32261 0.357355 
-0.986632 -3.58172 1.83424 5.80828 1.29 6.56799 -1.86486 0.51639 4.41836 
2.48963 2.67385 0.992849 1.82256 0.971416 3.50114 2.90571 1.46033 2.78977 
2.55762 1.46259 3.1085 1.04718 1.96739 1.98036 0.328361 1.39401 1.98286 
10.9637 1.94445 1.95325 1.61657 0.878815 2.29589 6.76796 2.75294 0.642416 
0.91887 2.87655 2.50813 2.26294 3.40796 1.53067 1.91669 1.10665 1.9863 
1.1748 1.62064 2.3079 1.77425 3.40788 0.970706 2.05341 2.52953 2.77394 
1.80541 1.57444 2.75986 1.09429 0.469588 2.28578 4.70696 0.296476 1.83016 
0.679854 -0.0448587 -0.461768 1.20844 2.07009 1.11645 2.04319 1.0141 1.90927 
1.15074 2.12381 0.738518 1.98015 1.49316 -0.587156 2.23254 1.33158 2.21165 
1.63569 2.10656 1.91805 2.54346 0.437859 1.7194 1.58637 1.6807 2.34338 
1.83378 1.25518 1.61296 2.21027 1.49659 1.24285 -0.405281 -0.173932 2.74175 
1.38447 1.23081 0.996588 2.76838 -0.279922 0.989351 2.83596 1.94019 0.565053 
1.03398 1.89035 2.0396 0.122101 1.32807 -0.517106 1.04614 1.07004 2.05459 
0.671104 2.01245 1.96134 1.79278 0.28502 2.65245 1.78494 1.36959 1.71391 
1.26017 0.347196 0.567107 1.12347 -0.322444 2.90896 2.05266 2.06059 1.55837 
2.43698 1.02289 1.83693 0.498754 1.98121 1.33856 2.58911 2.94941 2.30321 
2.7504 2.52703 3.13693 2.97334 2.35874 2.832 2.61342 3.12811 0.862841 

kmin 1 252 float
0.986666 6.95094 1.19331 0.610907 1.92322 1.02522 7.83238 3.17173 13.5323 
7.11181 3.72041 5.17022 5.76757 -0.461378 4.89958 0.262734 0.651206 1.50879 
6.60998 1.4577 3.31083 7.67378 1.68363 2.5157 4.32219 4.84961 18.1843 
0.307519 -1.81462 5.40363 2.6839 12.8338 4.23746 1.08814 2.187 1.53814 
5.30676 1.00519 0.110384 1.60211 1.18662 0.338009 13.1101 1.10475 3.81636 
0.662205 0.695776 0.387195 3.22759 7.42011 3.03229 4.2519 0.570921 2.76693 
11.5842 1.20168 1.11658 -0.357429 3.37544 1.52696 0.639228 1.23646 0.565334 
-1.78681 2.38161 0.658307 -0.155477 1.97189 1.14054 1.26588 0.977727 1.02672 
9.34303 1.62957 0.911187 8.23827 3.13071 -1.92047 -0.134403 7.41227 0.528601 
2.31754 0.989938 0.882325 2.30656 4.57114 2.80492 0.91765 0.822569 1.1472 
2.45291 18.7951 4.31519 0.945113 1.85325 5.21766 0.271811 -1.17468 0.823833 
0.414749 -1.70678 3.02378 9.7765 2.27066 11.1328 0.572075 0.917669 6.87145 
5.88447 3.59459 1.69368 2.9973 1.51841 9.08893 4.15673 2.57649 3.74305 
7.52033 2.76939 6.17138 1.59441 4.47625 4.13806 2.06916 2.12571 3.93137 
18.4601 2.9731 4.20426 2.86598 1.19251 5.26821 11.3782 5.45374 1.54939 
2.7046 5.54999 3.70181 4.22511 7.36692 2.768 3.64377 1.3074 3.60693 
2.31038 3.0884 6.15784 3.90756 7.07463 1.72563 3.88276 6.54343 6.10509 
3.72613 4.55369 5.92242 1.95416 1.84673 5.27593 11.7714 1.40736 3.45554 
1.8845 1.86243 0.462661 3.61753 4.04861 2.89058 4.80914 1.55928 3.45117 
3.19564 4.65747 2.04404 4.34517 3.34224 -0.0580566 4.63435 3.70337 4.53175 
3.38414 4.14081 3.73891 5.93049 2.29371 2.87198 3.61117 3.56326 6.79875 
3.81131 2.35065 3.47837 4.3869 2.43257 3.7366 0.12479 0.398505 5.18627 
3.03897 2.48406 2.50475 4.88891 0.82732 2.68422 6.19396 3.9116 1.74432 
2.20456 3.83831 5.52701 1.34504 2.8188 0.375092 2.60101 2.66029 4.02558 
1.12653 3.39757 4.52643 4.35254 1.5414 4.7439 3.71513 2.86106 3.92245 
2.42954 1.20838 1.51576 3.48456 0.283596 5.10566 4.66254 3.65541 2.29515 
3.99162 1.82901 2.83456 1.83324 3.17701 2.05696 4.23703 4.8951 3.91178 
4.54042 3.9788 5.28748 5.0879 3.667 4.41742 3.84235 5.56674 4.63013 

kmax 1 252 float
-0.743427 0.429475 -0.778194 -3.03086 -0.540964 -2.80973 1.49167 0.60976 1.53984 
1.7401 0.15705 2.10524 1.86952 -0.892175 -1.8325 -4.60412 -2.03393 -0.840714 
1.8817 -0.985421 1.60402 -1.79591 -3.96606 1.13157 0.0593608 0.56752 2.17535 
-0.964696 -6.48328 1.15072 0.733342 2.15302 0.991347 0.384613 0.21996 -0.281676 
-0.44864 -0.523025 -1.81525 -1.23184 -1.05467 -0.993523 1.48446 -0.295451 -0.207519 
-2.34178 -0.0998995 -1.02641 0.27956 -0.858568 -0.278264 -1.03144 -1.00312 -0.166662 
-1.83894 0.0911596 -0.785103 -12.6121 1.83567 0.90848 0.138089 0.820763 -0.73198 
-7.20556 0.617245 -0.760626 -0.684725 0.635046 -0.0122333 0.709627 -0.223309 -0.655479 
3.80543 -0.0588053 -0.445181 0.610136 0.814963 -4.71342 -1.45962 2.12081 -0.0994772 
-0.500986 -0.0219314 0.659867 1.16941 -1.67526 0.486509 -1.07497 -0.519008 -0.570202 
0.295406 -2.41559 0.544277 -0.342805 0.575611 1.40611 -4.03805 -9.47054 -0.109123 
-2.38801 -5.45666 0.644697 1.84006 0.309345 2.0032 -4.30179 0.11511 1.96526 
-0.90522 1.75311 0.292017 0.647821 0.424426 -2.08666 1.6547 0.344169 1.83649 
-2.40509 0.155783 0.0456283 0.499955 -0.541473 -0.177342 -1.41244 0.662308 0.0343492 
3.46724 0.915804 -0.297756 0.36716 0.565121 -0.676433 2.15767 0.0521384 -0.264558 
-0.866861 0.203103 1.31446 0.300763 -0.550991 0.293334 0.189602 0.905896 0.365664 
0.0392265 0.152883 -1.54204 -0.359056 -0.258882 0.215783 0.224064 -1.48437 -0.557211 
-0.1153 -1.40482 -0.402698 0.23443 -0.907553 -0.70438 -2.35743 -0.814409 0.204781 
-0.52479 -1.95215 -1.3862 -1.20064 0.0915757 -0.657674 -0.722764 0.468913 0.367374 
-0.89417 -0.409851 -0.567003 -0.384862 -0.355909 -1.11626 -0.169275 -1.04022 -0.108455 
-0.112749 0.0723118 0.0971825 -0.843564 -1.41799 0.566811 -0.438431 -0.201868 -2.112 
-0.143745 0.159698 -0.252455 0.0336377 0.5606 -1.2509 -0.935352 -0.746369 0.297236 
-0.270024 -0.0224365 -0.511571 0.647839 -1.38716 -0.705519 -0.522032 -0.0312055 -0.614217 
-0.136606 -0.0576075 -1.4478 -1.10084 -0.162662 -1.4093 -0.508725 -0.520207 0.0836065 
0.215681 0.627321 -0.603762 -0.766981 -0.971362 0.561007 -0.145263 -0.121889 -0.494632 
0.0907971 -0.513991 -0.381547 -1.23762 -0.928485 0.712248 -0.557225 0.465767 0.821602 
0.882336 0.216767 0.839293 -0.83573 0.785411 0.620165 0.941189 1.00372 0.694642 
0.960369 1.07526 0.986386 0.858776 1.05048 1.24658 1.38448 0.689479 -2.90445 

hks 16 252 double
0.28663184897 0.28891956374 0.29131443294 0.29382200407 0.29644761082 0.29919625237 0.30207247278 0.30508024401 0.30822285595 
0.31150281666 0.31492176574 0.31848040313 0.32217843517 0.32601453908 0.32998634658 0.3340904464 0.32611682924 0.32711311714 
0.32824190905 0.32951571782 0.33094665752 0.33254620393 0.33432495605 0.33629240612 0.33845672531 0.34082457219 0.34340093011 
0.34618897889 0.3491900048 0.35240335145 0.3558264126 0.35945466643 0.26314147589 0.26463386976 0.26625383399 0.2680080818 
0.2699027685 0.2719433853 0.27413466093 0.27648047362 0.27898377594 0.28164653457 0.28446968647 0.28745311282 0.29059563093 
0.2938950043 0.29734797 0.30095028228 0.26040137606 0.26117313611 0.26208040746 0.26313023789 0.26432905069 0.26568255176 
0.26719564146 0.26887233351 0.27071568328 0.27272772742 0.27490943714 0.27726068663 0.2797802381 0.28246574407 0.2853137673 
0.28831981792 0.22191353482 0.22178146651 0.2217011326 0.22167664307 0.22171173395 0.22180974653 0.22197361554 0.22220586607 
0.2225086189 0.22288360367 0.22333217898 0.22385535851 0.2244538418 0.22512804863 0.22587815531 0.22670413174 0.25415624867 
0.25621718251 0.25846821366 0.26091407458 0.2635583845 0.26640353372 0.26945058887 0.27269922329 0.27614767521 0.27979273622 
0.28362977036 0.28765276385 0.29185440359 0.29622618177 0.30075852284 0.30544092819 0.28698910372 0.28629695686 0.28570090563 
0.28520683672 0.28482055672 0.2845477604 0.28439399385 0.28436461221 0.28446473225 0.28469918017 0.28507243554 0.28558857238 
0.28625119881 0.28706339697 0.28802766479 0.28914586176 0.34887554049 0.35353120029 0.3583887206 0.36343945491 0.36867340864 
0.37407933167 0.37964483605 0.38535653696 0.3912002142 0.39716099041 0.40322352156 0.40937219454 0.41559132637 0.42186535928 
0.4281790463 0.43451762208 0.3679861739 0.36976441506 0.37172297513 0.3738735659 0.376226427 0.3787900986 0.38157122837 
0.38457441852 0.38780211749 0.39125455914 0.39492975068 0.39882350894 0.40292954281 0.40723957821 0.41174352052 0.41642964843 
0.31973797462 0.3176687727 0.31559772727 0.31353049424 0.31147324657 0.30943264434 0.30741579527 0.30543020657 0.30348372876 
0.30158449262 0.29974084021 0.29796125115 0.29625426521 0.29462840241 0.29309208161 0.29165353878 0.33314019474 0.33526571397 
0.33736011047 0.33942184822 0.3414491072 0.34343971335 0.3453910736 0.34730011823 0.34916325222 0.35097631746 0.35273456725 
0.35443265417 0.35606463199 0.35762397222 0.35910359499 0.36049591394 0.38966842577 0.39213143917 0.39456623252 0.39696706584 
0.39932781216 0.40164195576 0.403902594 0.40610244308 0.40823384819 0.41028879849 0.41225894734 0.41413563829 0.41590993725 
0.41757267126 0.41911447383 0.42052583715 0.31814976195 0.31883291819 0.31963519481 0.32056999752 0.32165049659 0.3228894131 
0.32429880138 0.32588983295 0.32767258782 0.32965585905 0.33184697628 0.3342516536 0.33687386628 0.3397157603 0.34277759737 
0.34605773682 0.22125781786 0.22114187143 0.22113151425 0.22123456133 0.22145830736 0.22180942256 0.22229385364 0.22291673254 
0.22368229539 0.22459381415 0.22565354308 0.22686268192 0.22822135722 0.2297286226 0.23138247829 0.23317990947 0.36218041988 
0.36479160451 0.36764962475 0.37075423768 0.37410303154 0.37769143336 0.38151276099 0.38555831897 0.38981753616 0.39427814137 
0.39892637221 0.40374721078 0.40872463908 0.41384190642 0.41908180065 0.42442691523 0.28246531498 0.28506293662 0.28784343022 
0.29081206933 0.29397273189 0.29732778445 0.30087799582 0.30462248346 0.30855869444 0.31268242159 0.31698785453 0.32146766349 
0.3261131131 0.33091420211 0.33585982402 0.34093794342 0.38166057864 0.38659587027 0.39170827122 0.39698681399 0.40241921873 
0.40799203666 0.41369081958 0.41950031198 0.42540466097 0.43138763887 0.43743287226 0.44352407128 0.44964525259 0.4557809498 
0.46191640553 0.46803774001 0.26324905784 0.2631132452 0.26300850512 0.2629412492 0.26291790682 0.26294487127 0.26302844616 
0.2631747926 0.26338987761 0.26367942419 0.26404886338 0.2645032888 0.26504741406 0.26568553335 0.2664214857 0.26725862316 
0.39055926761 0.39659488621 0.40273109827 0.40895672224 0.41526010325 0.42162921487 0.42805176811 0.43451532637 0.44100742427 
0.44751568868 0.45402795941 0.46053240734 0.46701764722 0.47347284286 0.47988780196 0.48625305869 0.27581173696 0.27438524462 
0.27288105424 0.27130331335 0.26965693724 0.26794757823 0.26618158429 0.26436594826 0.26250824859 0.26061658322 0.25869949821 
0.25676591276 0.2548250423 0.25288632138 0.25095932776 0.24905370892 0.31526359683 0.31959914594 0.32413333928 0.32886468883 
0.33379030798 0.33890588021 0.34420565929 0.34968250228 0.35532793481 0.36113224718 0.36708461822 0.37317326315 0.37938560006 
0.38570842972 0.3921281224 0.39863080579 0.40523093821 0.40929981701 0.41332579482 0.41729475601 0.42119237068 0.42500417282 
0.42871564391 0.43231230119 0.43577978906 0.43910397192 0.44227102662 0.44526753227 0.44808055535 0.4506977282 0.45310731907 
0.45529829235 0.34942746599 0.35043152993 0.35145290585 0.35249112288 0.35354519942 0.35461356874 0.35569400742 0.35678356951 
0.35787852927 0.35897433529 0.36006557871 0.36114597814 0.3622083829 0.3632447962 0.36424641866 0.36520371221 0.36796889321 
0.36939685612 0.37105515333 0.37295338323 0.37509942029 0.37749921225 0.38015661296 0.38307325693 0.3862484803 0.38967929145 
0.39336039229 0.39728424999 0.40144121638 0.40581969117 0.41040632305 0.41518624176 0.39866852656 0.40233448212 0.40592532737 
0.40943119931 0.41284223591 0.41614861761 0.41934060792 0.42240859244 0.42534311538 0.42813491298 0.43077494312 0.43325441091 
0.43556479014 0.43769784068 0.43964562238 0.44140050603 0.28545102348 0.28291350074 0.28027878413 0.2775503889 0.27473280249 
0.27183145954 0.26885270065 0.2658037163 0.26269247741 0.25952765482 0.25631853014 0.25307490082 0.24980698219 0.24652530928 