# vtk DataFile Version 5.1
vtk output
ASCII
DATASET POLYDATA
POINTS 252 float
0.644094 0.24415 0.217141 0.652931 0.304416 0.107765 0.596813 0.289385 0.1106 
0.586242 0.303182 0.008158 0.574985 0.218103 0.224078 0.65549 0.311957 0.032835 
0.577739 0.25609 0.171105 0.544111 0.254789 0.08473 0.655827 0.313046 -0.05524 
0.57568 0.173954 0.265467 0.62784 0.139399 0.304094 0.532154 0.187572 0.191489 
0.651897 0.294769 -0.120995 0.586761 0.290521 -0.086093 0.512017 0.149683 0.122343 
0.544083 0.259835 -0.026162 0.614543 0.048688 0.323363 0.557088 0.086894 0.30835 
0.638362 0.196696 0.053103 0.582656 0.251642 -0.170727 -0.539396 0.312757 0.098104 
-0.567559 0.321171 0.090831 0.542753 0.233489 -0.122239 0.522584 0.128124 0.240702 
0.620013 0.081547 0.232447 0.519428 0.18957 0.021317 -0.568896 0.300335 0.044595 
-0.462784 0.299542 0.093457 -0.671847 0.30896 0.082194 0.518861 0.177349 -0.069873 
0.490076 0.136385 -0.007893 -0.381657 0.258326 0.10539 0.597419 0.038046 0.334265 
-0.440067 0.267183 0.05231 0.487899 0.124724 0.067552 0.506029 0.015079 0.271949 
0.569909 0.18464 -0.242591 0.538994 -0.00139 0.318638 0.475485 0.056389 0.126593 
0.602074 -0.036308 0.283621 0.641906 0.207732 -0.242181 -0.744663 0.274567 0.065094 
0.506542 0.08259 -0.171786 -0.732745 0.271279 0.076184 0.437089 0.083901 0.042459 
0.535716 -0.053431 0.319933 -0.302319 0.178211 0.101952 0.595596 -0.062651 0.330584 
-0.844163 0.19407 0.055718 0.436109 0.089712 -0.021347 -0.79249 0.209405 0.014321 
0.609132 -0.007515 -0.056682 0.429396 0.032011 0.085882 -0.685906 0.280497 0.031943 
0.466149 -0.009211 0.137525 0.491409 -0.076011 0.258727 -0.336736 0.188617 0.053145 
-0.579541 0.1874 0.030751 0.367206 0.068015 -0.010517 0.493379 0.035385 0.191646 
0.240446 0.076771 0.021191 -0.321632 0.149685 0.098355 0.321073 0.06167 0.032738 
0.636832 0.176511 -0.133517 0.562047 0.11719 -0.282584 0.530696 0.157094 -0.210101 
0.369303 0.054376 0.048165 -0.293421 0.111685 0.047148 0.156492 0.074211 0.019297 
-0.47195 0.158778 0.086287 0.223847 0.075745 -0.006396 0.486934 0.106256 -0.08447 
0.043601 0.073021 0.010098 0.212708 0.028133 0.033858 -0.699444 0.154006 0.065687 
0.255505 0.051521 -0.020499 0.33273 0.044086 -0.017367 0.337403 0.024217 0.045343 
0.084144 0.043928 0.037273 0.218959 0.058059 0.040927 0.453154 -0.072857 0.107463 
0.135676 0.059537 -0.016193 0.427838 0.05212 -0.070601 0.332111 0.002971 0.03005 
0.628345 0.10691 -0.300081 0.514145 -0.165039 0.275483 0.048177 0.067062 -0.020028 
0.320581 0.01607 -0.010525 0.229034 0.017915 0.014376 0.217174 0.027702 -0.010747 
0.415257 -0.003718 -0.080007 0.016897 0.053251 0.01796 0.111183 0.038108 -0.020181 
-0.031259 0.083294 -0.060136 0.128633 0.014904 -0.004893 0.57411 -0.139109 0.316507 
-0.045067 0.048679 -0.044588 0.106602 0.016489 0.028825 -0.096518 0.110269 -0.161549 
0.414059 -0.041847 0.073517 -0.855488 0.117152 -0.001534 0.579121 -0.191048 0.295826 
0.471211 -0.101283 0.14924 0.018223 0.017633 0.003097 0.062225 0.012763 0.000725 
-0.105567 0.0939 -0.130591 -0.146634 0.099558 -0.181966 0.043928 0.040288 -0.036873 
-0.028975 0.047453 -0.109588 -0.390521 0.142184 0.042145 -0.030487 0.076729 -0.105662 
-0.154537 0.127421 -0.247576 -0.254101 0.064959 0.090964 -0.080422 0.045617 -0.086503 
0.586483 -0.149419 0.171124 0.00805 0.025089 -0.061721 -0.198361 0.127782 -0.236389 
-0.22924 0.131589 -0.274585 0.482961 -0.079507 -0.165853 -0.889498 0.079997 0.026185 
-0.056949 0.028956 -0.101328 -0.099858 0.090012 -0.220862 -0.86079 0.104613 0.045539 
0.381434 -0.023777 -0.043464 0.470325 -0.001178 -0.130053 0.569198 0.060637 -0.307476 
-0.11782 0.056407 -0.153823 -0.079823 0.054319 -0.175276 -0.267777 -0.002393 0.036367 
-0.294273 0.114452 -0.251784 0.512613 0.030955 -0.260606 0.45942 -0.090635 -0.093255 
-0.176527 0.080663 -0.220269 0.388676 -0.056737 -0.006073 -0.217602 0.110946 -0.296106 
0.573746 -0.225826 0.262869 0.607959 -0.026946 -0.333513 -0.26149 0.026121 0.089707 
-0.157227 0.096364 -0.267429 0.543079 -0.006916 -0.308141 -0.159913 0.071868 -0.246165 
-0.299182 0.127495 -0.279935 -0.540954 0.005393 0.000588 -0.546595 0.06763 0.019589 
0.452535 -0.128886 -0.013072 -0.360917 0.108887 -0.268553 -0.217016 0.083349 -0.288963 
0.454183 -0.12298 0.056602 -0.28282 0.11239 -0.307637 -0.586878 0.027489 -0.051404 
-0.244788 -0.041492 0.079473 -0.284281 -0.143862 0.067707 -0.266734 0.091046 -0.249292 
-0.779653 0.030904 0.044447 -0.348382 0.082069 -0.301379 -0.262397 0.07447 -0.26327 
-0.430272 0.089546 -0.236957 -0.553761 0.029659 -0.038231 -0.539386 0.067165 -0.179362 
-0.346883 0.081547 -0.241941 0.496667 -0.07032 -0.250856 0.510628 -0.228344 0.230893 
-0.547671 0.036897 -0.10075 -0.281369 0.068862 -0.288746 -0.533861 0.00463 -0.072029 
0.468126 -0.187718 0.093296 -0.586446 0.033716 -0.125183 -0.56583 0.060063 -0.145842 
-0.499831 0.000373 0.016105 -0.519548 0.075594 -0.238219 -0.591644 0.022379 -4e-06 
-0.902115 -0.010207 0.013982 -0.456747 0.096262 -0.258822 0.477618 -0.177645 0.206979 
-0.594487 0.005225 -0.101187 -0.565771 -0.033671 -0.009362 -0.536882 0.07429 -0.260322 
0.527975 -0.115115 -0.289262 -0.418212 0.06465 -0.229895 -0.737788 -0.104036 0.032624 
0.562936 -0.296336 0.191623 -0.492933 0.048358 -0.234284 -0.599201 -0.020955 -0.006836 
-0.492533 0.073015 -0.289589 -0.416866 0.083237 -0.28527 -0.525041 0.025765 -0.183792 
-0.378228 0.040086 -0.257204 -0.651997 0.021479 0.005078 -0.414287 0.045422 -0.276175 
-0.57947 0.058201 -0.210655 -0.423316 0.045204 -0.242508 0.609116 -0.01901 -0.255994 
-0.540201 -0.015208 -0.099567 -0.506444 0.023126 -0.243252 0.467356 -0.25198 0.092651 
-0.570775 -0.020907 -0.118392 -0.579497 0.02071 -0.171005 -0.891204 0.019644 0.03349 
0.561223 -0.324894 0.107558 -0.795776 0.017229 -0.007947 -0.548032 0.016038 -0.234914 
-0.546294 0.047697 -0.27265 0.501322 -0.283165 0.157127 -0.264391 -0.122271 0.068068 
0.471125 -0.1784 -0.085277 -0.478894 0.029504 -0.285131 -0.879889 -0.00775 -0.018067 
0.582361 -0.184278 0.038064 0.552748 -0.324056 0.1325 0.479 -0.186115 -0.184131 
0.586486 -0.171188 -0.286265 -0.88013 -0.096002 0.020908 -0.379607 -0.230067 0.049683 
-0.408705 -0.078865 0.015264 -0.471027 -0.025119 0.065154 -0.557244 -0.080021 0.001795 
0.517565 -0.179439 -0.255491 0.585395 -0.133689 -0.310545 0.588405 -0.155323 -0.18358 
-0.291238 -0.129603 0.019449 0.4976 -0.319693 0.040033 0.575064 -0.207192 -0.270106 
0.465628 -0.260434 -0.0169 0.471848 -0.243939 -0.105262 -0.325984 -0.228297 0.051081 
0.5639 -0.318582 -0.117332 0.507037 -0.251565 -0.192023 -0.55491 -0.19274 0.038437 
0.55127 -0.345828 0.050114 0.559443 -0.342881 -0.002375 -0.885718 -0.118659 0.009163 
0.498021 -0.305141 -0.084457 0.57192 -0.255625 -0.231153 -0.842176 -0.150245 -0.031583 
0.545634 -0.340506 -0.05555 0.555741 -0.318401 -0.134015 0.566684 -0.298334 -0.178917 
-0.383873 -0.280876 0.03939 -0.741559 -0.267684 0.01323 -0.346834 -0.213979 0.005086 
-0.678114 -0.166171 -0.018712 -0.843115 -0.192288 0.012509 -0.455645 -0.287033 -0.013197 
-0.809198 -0.236165 0.002789 -0.467471 -0.322938 0.025514 -0.766029 -0.237303 -0.034285 
-0.736539 -0.289776 -0.000882 -0.673411 -0.293428 -0.032764 -0.562715 -0.311574 -0.025339 
-0.578301 -0.339757 0.011811 -0.560957 -0.326019 0.022651 -0.681236 -0.3222 0.011849 

POLYGONS 501 1500
OFFSETS vtktypeint64
0 3 6 9 12 15 18 21 24 
27 30 33 36 39 42 45 48 51 
54 57 60 63 66 69 72 75 78 
81 84 87 90 93 96 99 102 105 
108 111 114 117 120 123 126 129 132 
135 138 141 144 147 150 153 156 159 
162 165 168 171 174 177 180 183 186 
189 192 195 198 201 204 207 210 213 
216 219 222 225 228 231 234 237 240 
243 246 249 252 255 258 261 264 267 
270 273 276 279 282 285 288 291 294 
297 300 303 306 309 312 315 318 321 
324 327 330 333 336 339 342 345 348 
351 354 357 360 363 366 369 372 375 
378 381 384 387 390 393 396 399 402 
405 408 411 414 417 420 423 426 429 
432 435 438 441 444 447 450 453 456 
459 462 465 468 471 474 477 480 483 
486 489 492 495 498 501 504 507 510 
513 516 519 522 525 528 531 534 537 
540 543 546 549 552 555 558 561 564 
567 570 573 576 579 582 585 588 591 
594 597 600 603 606 609 612 615 618 
621 624 627 630 633 636 639 642 645 
648 651 654 657 660 663 666 669 672 
675 678 681 684 687 690 693 696 699 
702 705 708 711 714 717 720 723 726 
729 732 735 738 741 744 747 750 753 
756 759 762 765 768 771 774 777 780 
783 786 789 792 795 798 801 804 807 
810 813 816 819 822 825 828 831 834 
837 840 843 846 849 852 855 858 861 
864 867 870 873 876 879 882 885 888 
891 894 897 900 903 906 909 912 915 
918 921 924 927 930 933 936 939 942 
945 948 951 954 957 960 963 966 969 
972 975 978 981 984 987 990 993 996 
999 1002 1005 1008 1011 1014 1017 1020 1023 
1026 1029 1032 1035 1038 1041 1044 1047 1050 
1053 1056 1059 1062 1065 1068 1071 1074 1077 
1080 1083 1086 1089 1092 1095 1098 1101 1104 
1107 1110 1113 1116 1119 1122 1125 1128 1131 
1134 1137 1140 1143 1146 1149 1152 1155 1158 
1161 1164 1167 1170 1173 1176 1179 1182 1185 
1188 1191 1194 1197 1200 1203 1206 1209 1212 
1215 1218 1221 1224 1227 1230 1233 1236 1239 
1242 1245 1248 1251 1254 1257 1260 1263 1266 
1269 1272 1275 1278 1281 1284 1287 1290 1293 
1296 1299 1302 1305 1308 1311 1314 1317 1320 
1323 1326 1329 1332 1335 1338 1341 1344 1347 
1350 1353 1356 1359 1362 1365 1368 1371 1374 
1377 1380 1383 1386 1389 1392 1395 1398 1401 
1404 1407 1410 1413 1416 1419 1422 1425 1428 
1431 1434 1437 1440 1443 1446 1449 1452 1455 
1458 1461 1464 1467 1470 1473 1476 1479 1482 
1485 1488 1491 1494 1497 1500 
CONNECTIVITY vtktypeint64
242 244 248 10 16 24 35 59 55 
173 194 202 248 244 249 244 250 249 
212 250 244 17 23 35 16 10 32 
32 10 17 37 17 35 32 17 37 
24 16 39 37 35 45 45 35 55 
55 173 85 39 101 114 85 173 161 
161 173 202 114 180 198 114 135 180 
180 202 208 198 180 208 16 32 47 
39 16 47 47 32 37 47 37 45 
45 55 85 39 47 101 47 45 95 
45 85 95 101 47 95 95 85 101 
114 101 135 101 85 161 135 101 161 
135 161 180 180 161 202 156 145 184 
183 172 184 156 184 172 138 111 121 
111 138 134 117 134 148 117 111 134 
116 111 117 141 117 148 152 116 129 
141 129 117 116 117 129 42 130 160 
65 64 130 84 63 191 42 65 130 
65 19 36 22 19 65 12 63 40 
13 12 19 125 136 139 130 125 139 
125 84 136 84 191 136 64 84 125 
130 64 125 64 36 84 36 64 65 
40 84 36 40 63 84 19 40 36 
19 12 40 70 76 75 70 58 76 
62 58 70 60 62 70 68 70 81 
72 68 81 86 72 81 63 18 51 
44 34 49 44 49 58 66 44 58 
62 66 58 34 30 49 34 25 30 
53 26 57 34 14 25 14 7 25 
25 7 15 5 1 18 6 2 7 
226 232 236 218 225 236 204 118 209 
200 185 195 195 185 192 200 195 196 
174 166 196 131 118 204 124 118 131 
185 162 192 158 162 185 162 167 166 
158 167 162 90 124 131 108 115 120 
108 107 115 232 218 236 209 216 226 
176 169 183 158 169 176 183 169 172 
118 42 160 121 127 140 229 207 198 
179 241 238 243 245 246 55 59 102 
102 173 55 173 102 165 173 165 194 
114 198 207 151 212 224 219 151 224 
202 194 220 208 202 220 208 220 228 
237 224 212 238 241 243 227 238 250 
212 227 250 242 237 244 237 212 244 
250 238 251 251 238 246 246 247 251 
247 248 249 251 247 249 106 116 132 
132 116 152 111 98 121 116 98 111 
98 116 106 63 51 191 42 29 65 
15 22 29 15 13 22 13 19 22 
8 18 63 8 63 12 13 8 12 
191 218 210 217 191 210 136 191 217 
177 136 217 154 186 188 183 184 205 
184 188 205 177 139 136 160 139 177 
130 139 160 146 155 163 146 140 155 
163 148 146 134 146 148 155 152 163 
148 163 154 141 148 154 184 154 188 
184 145 154 138 140 146 138 121 140 
134 138 146 145 141 154 29 22 65 
69 20 74 14 34 38 14 38 59 
46 31 61 18 0 24 11 14 23 
59 23 14 4 6 11 0 6 4 
235 225 234 225 229 234 234 231 235 
225 207 229 222 223 231 222 204 223 
218 207 225 182 195 175 182 174 195 
164 157 142 182 170 174 170 149 174 
170 157 149 170 142 157 119 100 206 
100 199 206 147 133 144 143 142 170 
199 50 187 100 50 199 223 226 231 
133 131 144 33 56 109 33 109 57 
20 43 74 41 53 50 38 44 52 
43 48 74 99 83 133 24 39 18 
31 69 61 38 52 54 18 39 51 
48 122 74 56 46 67 46 61 112 
112 61 137 46 112 67 52 66 77 
54 52 99 52 77 99 54 99 80 
74 122 153 69 74 214 61 69 214 
137 61 214 67 112 128 77 83 99 
80 99 147 51 39 114 122 48 119 
48 100 119 119 197 122 197 153 122 
41 50 48 43 41 48 31 46 56 
33 31 56 198 208 228 27 31 33 
31 20 69 33 57 26 28 21 26 
28 26 53 20 28 43 28 53 41 
43 28 41 31 27 20 27 21 20 
21 27 26 26 27 33 133 87 123 
83 87 133 83 88 87 87 88 89 
88 97 94 88 73 97 97 104 94 
97 103 104 97 78 103 103 91 96 
78 91 103 128 109 67 143 57 109 
57 143 187 50 57 187 83 77 88 
66 62 77 62 79 77 62 60 79 
77 73 88 77 79 73 79 97 73 
60 68 79 79 78 97 68 72 78 
68 78 79 72 91 78 56 67 109 
53 57 50 50 100 48 38 34 44 
44 66 52 89 88 94 107 94 104 
92 94 107 115 104 103 68 60 70 
28 20 21 11 7 14 6 7 11 
18 1 0 1 2 6 6 0 1 
187 143 170 143 109 168 142 175 192 
165 204 222 147 99 133 74 153 214 
168 109 128 112 150 128 51 114 207 
197 119 171 119 206 171 187 170 182 
215 182 175 142 143 168 142 168 215 
215 175 142 168 128 213 128 150 219 
165 147 144 144 204 165 206 199 233 
199 187 240 240 187 215 187 182 215 
168 213 215 128 219 213 236 225 235 
235 226 236 231 226 235 223 209 226 
204 209 223 192 175 195 174 196 195 
218 51 207 144 131 204 162 164 192 
162 157 164 149 166 174 149 162 166 
157 162 149 133 123 131 123 90 131 
103 113 120 76 90 123 87 76 123 
89 75 87 92 89 94 92 75 89 
86 81 92 107 104 115 107 86 92 
93 86 110 72 93 91 72 86 93 
96 113 103 91 93 96 75 76 87 
70 75 92 81 70 92 103 120 115 
127 108 120 113 126 120 90 82 124 
76 82 90 110 107 108 110 86 107 
96 105 113 93 105 96 98 93 110 
93 98 105 58 82 76 58 49 82 
82 49 71 30 71 49 25 29 30 
25 15 29 15 7 3 2 1 3 
7 2 3 221 210 232 226 221 232 
210 218 232 221 226 216 209 160 216 
193 185 200 181 185 193 181 158 185 
189 200 196 189 201 200 166 189 196 
166 167 189 167 158 189 191 51 218 
124 42 118 110 108 127 121 110 127 
126 132 140 127 126 140 120 126 127 
105 126 113 3 1 5 169 158 181 
158 176 189 214 153 179 102 80 147 
112 137 150 132 155 140 105 98 106 
129 145 159 129 159 152 132 152 155 
172 169 181 156 172 181 178 156 181 
178 181 190 145 156 159 159 156 178 
186 178 190 159 178 186 152 159 186 
163 152 186 189 176 201 176 183 201 
201 183 205 193 200 205 201 205 200 
190 181 193 190 193 205 190 205 188 
186 190 188 160 177 216 177 217 216 
217 210 221 216 217 221 3 5 8 
3 8 13 5 18 8 3 13 15 
30 29 71 29 42 71 71 42 124 
82 71 124 98 110 121 126 106 132 
105 106 126 102 54 80 59 54 102 
59 38 54 23 4 11 9 4 23 
0 4 9 220 231 234 220 222 231 
199 240 233 206 233 230 171 206 230 
23 59 35 10 9 17 0 10 24 
10 0 9 17 9 23 129 141 145 
245 247 246 239 237 242 240 248 247 
240 247 245 243 233 245 233 240 245 
241 233 243 228 234 229 228 220 234 
239 224 237 213 239 242 213 242 248 
215 248 240 227 179 238 241 230 233 
241 211 230 179 211 241 229 198 228 
215 213 248 203 151 219 239 219 224 
219 239 213 214 227 212 194 222 220 
150 137 151 151 137 214 102 147 165 
150 151 203 150 203 219 197 171 211 
179 197 211 211 171 230 179 153 197 
214 179 227 151 214 212 165 222 194 
246 238 243 250 251 249 154 163 186 
164 142 192 118 160 209 
POINT_DATA 252
SCALARS k float
LOOKUP_TABLE default
0.499452 0.529888 0.070186 0.162026 0.112381 0.133837 0.12231 0.103412 0.407895 
0.0881908 0.57135 0.0601394 0.431433 0.126071 -0.0328168 0.0715822 0.0895374 0.157382 
-6.91414e-05 0.144562 0.160504 0.38142 0.0756238 0.0989568 -4.52995e-06 -0.0253977 0.200397 
0.289248 0.517071 -0.0311817 -0.107467 0.580446 0.237185 0.179267 -0.112359 0.0696292 
0.16132 0.0830661 -0.101373 -0.000584245 0.555851 0.258816 -0.0498135 0.0645247 -0.258303 
0.172177 0.581806 0.251954 0.839232 -0.213244 0.183777 -4.17233e-07 -0.288054 0.198114 
-0.0854701 0.0697802 0.185877 -4.17233e-07 -0.466384 -0.0449991 0.13529 -0.00128019 -0.204959 
-0.000262141 0.140909 0.0914513 -0.226912 0.148946 -0.0320753 -1.19209e-06 0.0612083 -0.172811 
0.0987784 -0.101451 -0.000119925 0.0482638 -0.419638 -0.37348 0.218908 0.064579 -0.127975 
-0.121465 -0.123553 -0.558336 0.346734 0.143957 -0.456208 -0.72493 -0.198709 -0.110767 
-0.0474941 0.545955 -0.190561 -0.108702 0.0299289 0.148764 0.0395044 0.218743 -0.00878644 
-0.223959 0.203318 0.586937 -0.0531397 0.421944 -0.121492 0.0545492 -0.167115 -0.609922 
-0.151274 -7.236e-05 -0.212242 0.375875 0.457791 0.229487 -0.000146389 0.0532947 -0.261669 
0.122443 -0.0536832 0.255224 0.114301 0.345382 -0.0188181 -0.0704937 -0.208539 0.0742545 
-0.139057 0.0544471 0.185975 -0.0916343 0.0866089 -0.195318 -0.672287 -0.0828108 0.292229 
0.0386711 0.643664 0.0168263 0.222531 0.148062 -0.0714256 0.243065 -1.8297 -0.0464903 
-0.162848 -0.169621 0.116097 -0.127164 0.477567 -0.0437626 0.492694 -0.220059 -0.591088 
-7.15256e-06 0.0504003 0.0196817 0.111368 0.147869 -0.0272256 -0.177479 0.0836127 0.12201 
-0.466712 -0.144078 0.1871 -0.0341805 -0.232041 0.325662 -0.0551105 -0.6081 -1.67024 
0.320217 0.205287 0.0963107 0.109566 -1.42763 0.348768 0.125012 0.187662 -1.19805e-05 
0.47148 -1.15281 -1.17797 0.399966 -0.420768 -0.572829 0.326459 -0.108801 -0.329723 
0.606325 -0.166238 -0.0060401 0.0761172 -0.388294 0.0943083 0.21289 -0.00285006 0.162937 
0.0559091 -7.62939e-06 0.0621853 0.810692 0.166233 0.601947 -0.0463092 0.598445 0.220617 
2.98023e-07 0.180794 0.0852146 0.114279 0.0558963 0.00107014 1.37091e-06 -5.126e-06 -0.153736 
0.114248 0.271393 -0.000247359 0.187942 0.184565 0.172248 0.0758303 0.06093 0.511516 
0.0558505 0.172791 -8.34465e-07 0.305852 0.172613 0.481854 0.155596 0.289829 0.256842 
0.198516 0.139353 0.410133 0.417902 -0.0179362 0.19336 -1.45435e-05 0.296759 0.175936 
0.357613 0.459095 0.148582 0.119421 0.206496 0.19672 0.419985 0.0353708 0.61536 

FIELD FieldData 7
h 1 252 float
0.0281422 1.85499 3.01518 3.00333 3.42187 0.167546 2.91604 2.91433 0.0281762 
1.88173 1.14144 2.82352 1.44098 3.03339 2.45287 2.81631 0.0226647 2.23079 
0.0212541 2.93373 0.0219759 2.60149 2.86407 2.91513 0.0284377 2.5014 1.27894 
2.77112 0.0687407 2.46551 0.71426 -0.864558 6.61076 1.1403 1.00322 2.90005 
2.20939 1.16027 0.772541 0.0285618 0.635108 0.100445 2.44758 -0.789573 0.490579 
2.68801 0.106627 4.78447 -0.879626 0.403488 1.90255 0.0167708 0.610181 1.54159 
0.509546 2.77106 1.63491 1.44762 0.764786 2.48021 2.51215 -0.52474 0.824729 
0.0282688 3.26782 2.8022 1.08606 1.55686 2.9216 0.0156119 1.03745 0.914769 
1.19603 -0.680502 -0.528645 -0.00518799 -0.379409 0.923054 1.15571 0.843958 0.106208 
1.42795 0.385964 0.0780971 0.130875 2.93484 0.542453 0.0928779 -1.09922 0.368686 
0.363815 6.2463 1.24727 1.38789 -0.699729 6.23927 14.15 0.342425 2.36017 
0.45467 1.75373 0.0398916 2.42794 0.119173 -1.84047 0.832739 0.616926 1.29713 
2.55812 1.43639 0.166879 0.99726 0.128008 0.579085 0.0237209 -0.0475143 -2.29312 
-0.187878 2.42364 0.0669952 0.0695535 26.1969 -1.07009 0.0324697 1.035 1.49289 
1.05781 1.98943 1.6717 -1.72515 2.88389 0.90827 -0.322394 0.385186 51.4321 
0.118643 4.72631 -0.514827 4.02974 2.01411 -0.133481 1.09988 -0.956403 0.635314 
1.35812 0.256785 0.0897394 0.632715 14.4982 -0.615996 0.00953981 -0.933136 4.80713 
0.0193129 12.7213 0.557564 -1.08543 -1.51084 -0.387026 -4.37941 2.73676 1.35954 
-2.47743 0.860359 -3.45523 2.32257 -3.61853 0.780207 0.60476 -0.334063 -1.45081 
0.238871 -0.0595515 2.87242 -0.410229 -0.462117 -0.228041 1.48739 17.943 0.0177819 
0.16404 -8.17161 -0.47203 1.14639 4.43727 -4.40466 -0.383956 0.763324 1.23964 
0.133135 -1.39858 0.0389948 -2.13849 -1.08991 2.8717 -1.55629 -0.506916 0.0315253 
0.0248807 1.55342 -0.681332 0.810952 2.31062 0.167202 2.3355 -0.21865 1.69323 
0.0199459 4.32936 2.73119 0.0195702 0.03625 -0.520401 1.3849 0.0169386 0.72267 
3.16172 3.13413 0.0383928 1.76933 1.77055 5.59679 2.69929 2.87117 1.45534 
0.0233962 1.81333 0.0331332 2.51597 0.0245205 0.257175 1.95518 0.0461245 1.63115 
3.27301 4.79537 0.0380641 0.0287179 0.023339 1.79842 1.44648 -0.951008 1.75838 
-0.0614437 8.19691 1.62648 -0.0381817 1.68815 1.86153 -0.0555131 -0.978807 -0.359583 

kmin 1 252 float
0.0522069 2.14168 3.2385 3.26691 3.79448 0.194451 3.371 3.15644 0.0351631 
2.87871 1.28016 3.14488 1.78904 3.32681 2.59395 3.07941 0.0245757 3.11088 
0.0282346 3.58707 0.0380965 3.87188 3.1804 3.27922 0.0359438 2.57156 1.45218 
4.04843 0.465985 2.65522 3.52968 -0.621155 9.49478 1.30746 3.32941 3.29628 
2.98784 2.58667 3.64239 0.0350579 0.704241 0.595552 2.68602 -0.730426 4.08368 
3.2732 0.512558 7.23797 -0.479463 4.2185 2.28226 0.0244623 3.86308 1.73102 
3.61954 3.17994 1.77364 1.53911 4.32736 2.77122 5.42099 -0.490331 3.33093 
0.0363088 3.52945 3.13588 4.69295 1.71436 6.12352 0.031826 3.81485 3.26172 
2.31667 1.2067 -0.385734 3.56417 4.0598 4.14786 2.18653 2.11536 3.52088 
4.3281 4.17436 4.32697 0.152706 3.35963 1.66973 4.5769 1.36698 3.96377 
4.20926 12.4071 5.452 2.45689 0.767208 8.684 27.0626 1.98438 4.34532 
4.03271 1.97017 0.0642951 2.57912 1.19325 -0.653702 1.26931 1.51641 4.41853 
5.571 1.4452 0.448297 1.4971 0.564866 0.972716 0.0314428 0.928942 -0.0630209 
0.50211 2.59984 0.427623 1.0949 59.8765 -0.982837 4.04195 3.6496 2.78284 
2.56078 3.90341 1.90828 -0.189248 3.23962 3.38142 1.52024 4.24867 100.955 
0.147154 6.83404 -0.496492 7.93832 3.01859 0.276363 1.67466 1.17151 0.802345 
3.36982 0.478269 0.289924 3.54212 26.8042 1.04054 0.358729 -0.849668 13.5943 
0.0362844 22.7752 1.74386 -0.152213 1.60748 1.79333 -2.59229 3.10101 2.6952 
0.782046 1.28462 2.65784 2.56748 1.47665 2.08713 0.701991 0.112862 1.21752 
0.727955 0.54557 3.23894 1.33571 0.925506 0.81944 2.89074 39.0228 0.0337136 
0.219311 -4.58338 0.821031 2.70522 5.76788 0.711553 0.393867 0.992162 1.92499 
4.23964 -0.578507 0.0426938 2.90423 -0.569713 3.41214 3.0793 1.32619 0.0435008 
0.0367521 1.59523 1.85031 3.31658 3.18485 0.612761 2.46866 1.08365 1.90934 
0.0268519 5.27837 3.16966 0.0247945 0.0637993 -0.491313 1.55515 0.0338073 1.06447 
3.34975 4.02165 0.0456619 1.96683 2.87029 7.49924 3.07821 3.24708 2.10208 
0.0375234 2.90685 0.0491376 2.97874 0.0377121 0.611453 2.95729 0.0673142 1.82155 
3.7205 6.2085 0.065429 0.373736 0.0421589 1.98465 1.57499 -0.795614 1.9545 
0.148115 13.754 1.73931 0.286201 1.88498 2.22321 0.287613 -0.88915 -0.259171 

kmax 1 252 float
0.00407742 1.5683 2.79187 2.73974 3.04926 0.14064 2.46109 2.67222 0.0211894 
0.884753 1.00272 2.50217 1.09291 2.73997 2.3118 2.55321 0.0207536 1.3507 
0.0142737 2.28039 0.0058552 1.33109 2.54775 2.55104 0.0209316 2.43124 1.10571 
1.4938 -0.328504 2.27581 -2.10116 -1.10796 3.72673 0.973143 -1.32296 2.50383 
1.43095 -0.266127 -2.09731 0.0220658 0.565976 -0.394662 2.20914 -0.848721 -3.10253 
2.10282 -0.299305 2.33097 -1.27979 -3.41152 1.52283 0.00907929 -2.64272 1.35215 
-2.60045 2.36219 1.49618 1.35613 -2.79778 2.18921 -0.396689 -0.559148 -1.68147 
0.0202288 3.00618 2.46852 -2.52084 1.39936 -0.280326 -0.000602101 -1.73995 -1.43218 
0.0753868 -2.56771 -0.671557 -3.57454 -4.81861 -2.30176 0.124902 -0.427448 -3.30846 
-1.47221 -3.40243 -4.17078 0.109043 2.51005 -0.584825 -4.39114 -3.56542 -3.2264 
-3.48163 0.0854676 -2.95746 0.318893 -2.16667 3.79456 1.23734 -1.29953 0.375026 
-3.12337 1.53728 0.015488 2.27676 -0.9549 -3.02723 0.396169 -0.282559 -1.82428 
-0.454761 1.42758 -0.114539 0.497423 -0.308851 0.185454 0.015999 -1.02397 -4.52322 
-0.877865 2.24744 -0.293633 -0.955792 -7.4827 -1.15734 -3.97701 -1.5796 0.202945 
-0.445161 0.0754421 1.43512 -3.26105 2.52816 -1.56488 -2.16503 -3.4783 1.90928 
0.0901318 2.61858 -0.533162 0.121158 1.00964 -0.543326 0.525103 -3.08431 0.468284 
-0.653578 0.0353005 -0.110445 -2.27669 2.19206 -2.27254 -0.339649 -1.0166 -3.97998 
0.00234141 2.66744 -0.628734 -2.01864 -4.62917 -2.56738 -6.16654 2.37252 0.0238748 
-5.73691 0.436098 -9.56829 2.07767 -8.71371 -0.526715 0.507528 -0.780989 -4.11913 
-0.250214 -0.664673 2.50589 -2.15617 -1.84974 -1.27552 0.084043 -3.13685 0.00185016 
0.108769 -11.7598 -1.76509 -0.412449 3.10666 -9.52088 -1.16178 0.534486 0.55429 
-3.97337 -2.21865 0.0352958 -7.18122 -1.61011 2.33127 -6.19188 -2.34002 0.0195497 
0.0130093 1.51161 -3.21297 -1.69467 1.43639 -0.278356 2.20233 -1.52095 1.47712 
0.0130398 3.38034 2.29273 0.0143458 0.0087007 -0.54949 1.21465 6.9808e-05 0.380873 
2.97368 2.2466 0.0311238 1.57182 0.670821 3.69434 2.32037 2.49526 0.808595 
0.00926889 0.719807 0.0171287 2.0532 0.0113289 -0.0971041 0.953065 0.0249347 1.44075 
2.82552 3.38225 0.0106992 -0.3163 0.00451899 1.61218 1.31797 -1.1064 1.56225 
-0.271002 2.63988 1.51364 -0.362564 1.49133 1.49986 -0.398639 -1.06846 -0.459994 

hks 16 252 double
0.54489482722 0.54491387158 0.54527703282 0.54594798639 0.54688482038 0.54804120618 0.54936760722 0.55081246509 0.55232331281 
0.55384777939 0.55533446556 0.556733687 0.55799809471 0.55908319323 0.55994778322 0.56055435675 0.50940206322 0.50981496248 
0.51045451853 0.51127732987 0.51223980589 0.51329912126 0.51441404788 0.51554564406 0.51665779066 0.51771757257 0.51869551158 
0.51956566346 0.52030559694 0.52089627664 0.52132187544 0.52156954372 0.53212872974 0.52987209615 0.52768176584 0.52555907218 
0.52350420041 0.52151610737 0.51959246401 0.51772962903 0.51592266134 0.51416537823 0.51245046345 0.51076962655 0.50911381073 
0.5074734427 0.50583871444 0.50419988459 0.46217358981 0.46265639513 0.46312242612 0.46357907676 0.4640321304 0.4644853606 
0.46494026244 0.4653959324 0.46584910328 0.46629432894 0.46672430267 0.46713028349 0.4675025981 0.46783118268 0.46810612849 
0.46831819868 0.50218357331 0.50401151627 0.50575349552 0.50739439081 0.50891955036 0.51031492543 0.51156717118 0.51266371512 
0.51359279708 0.5143434878 0.51490569498 0.51527016709 0.51542850589 0.51537319849 0.51509767885 0.51459642758 0.51554325546 
0.51439781978 0.51356768952 0.51300230315 0.5126523076 0.51247057323 0.51241303614 0.51243935593 0.51251338467 0.51260344891 
0.51268245217 0.51272781031 0.5127212376 0.51264840728 0.51249851611 0.51226378822 0.51184123825 0.51245188074 0.51298642423 
0.51344086067 0.51381190327 0.51409660135 0.51429197913 0.51439472992 0.51440098931 0.51430620278 0.51410509286 0.51379172226 
0.51335964185 0.51280210735 0.51211234578 0.51128385352 0.47359616792 0.47209170435 0.47053369894 0.46891098373 0.46721559519 
0.4654430751 0.46359261842 0.46166706558 0.45967274489 0.45761917807 0.45551866828 0.4533857946 0.45123684056 0.44908918581 
0.44696069088 0.44486910395 0.48103766509 0.47963303309 0.47873272906 0.4782807819 0.47821678718 0.47847785178 0.47900052902 
0.47972265632 0.48058501553 0.48153274995 0.48251648853 0.4834931478 0.48442640285 0.48528683935 0.48605181775 0.48670509667 
0.53942093931 0.54087949594 0.54225868097 0.54354065125 0.54470897079 0.54574853477 0.54664542346 0.54738670328 0.54796019531 
0.54835423426 0.54855744281 0.54855854709 0.54834625893 0.54790924822 0.54723622494 0.54631614426 0.56642046778 0.56753106634 
0.56862473144 0.56967934393 0.57067534924 0.57159530749 0.57242330663 0.5731443069 0.57374348815 0.57420566771 0.57451484675 
0.57465392933 0.57460464181 0.57434766327 0.57386296166 0.57313031713 0.49742645061 0.49582203272 0.49429196026 0.49280749578 
0.49134214608 0.48987224964 0.48837742428 0.48684086994 0.48524952804 0.48359410414 0.48186896424 0.48007191848 0.47820390817 
0.47626861466 0.47427201094 0.47222187974 0.55160860777 0.55100232901 0.55053509802 0.55014906475 0.5497912315 0.54941407856 
0.54897597415 0.54844139085 0.54778095136 0.54697132411 0.54599498745 0.54483987954 0.54349895261 0.54196965363 0.54025335847 
0.5383547922 0.46268294836 0.46347159297 0.46428240131 0.46510795376 0.46593957983 0.46676727699 0.46757970458 0.46836426925 
0.46910731137 0.46979439333 0.47041068146 0.47094140458 0.47137236487 0.47169047208 0.47188427059 0.47194443012 0.41132509247 
0.40903495654 0.40679592951 0.40459241476 0.40241179325 0.40024472507 0.39808534554 0.39593135724 0.39378401921 0.3916480339 
0.38953133258 0.38744476167 0.38540167511 0.38341744315 0.38150889335 0.37969370631 0.43673331119 0.43555127346 0.43441844856 
0.43331377908 0.43221877076 0.43111805157 0.42999976727 0.42885580592 0.42768185399 0.42647729487 0.42524496754 0.42399080827 
0.42272340174 0.42145346988 0.42019332821 0.41895633878 0.4988742591 0.50279255312 0.50656215491 0.51015327069 0.51353951178 
0.51669808042 0.5196098381 0.52225926618 0.52463433114 0.52672626879 0.52852930352 0.53004032076 0.5312585127 0.53218501994 
0.53282259321 0.53317530045 0.54757530153 0.54731717217 0.54703350626 0.5467110038 0.5463347441 0.54588865972 0.54535605897 
0.54472015992 0.54396459937 0.54307388495 0.54203376718 0.54083151911 0.53945612417 0.53789838481 0.53615097494 0.53420846642 
0.56401674671 0.56277178013 0.56108718701 0.55901444714 0.55660937427 0.55393073392 0.55103879787 0.54799388216 0.54485491627 
0.54167809119 0.53851563127 0.53541473132 0.53241669381 0.52955629342 0.52686138665 0.52435277413 0.54697490251 0.54721205037 
0.54734752469 0.54737421864 0.54728429724 0.5470691115 0.54671917454 0.5462242105 0.54557328298 0.54475500427 0.54375782182 
0.54257037357 0.54118189988 0.53958269746 0.53776459926 0.53572146441 0.56688656788 0.56472586869 0.56296044373 0.56158726156 
0.56059457656 0.55996263348 0.55966464174 0.5596679632 0.55993545163 0.56042688179 0.56110040962 0.56191401186 0.5628268621 
0.56380060891 0.56480053063 0.56579654866 0.53652863718 0.53796262549 0.53931454152 0.54059780795 0.54182523937 0.54300819786 
0.54415582134 0.54527438595 0.54636685903 0.54743268881 0.54846786237 0.54946524502 0.55041519411 0.55130641976 0.5521270467 
0.55286581695 0.49149361802 0.48899692788 0.48668359547 0.48452947444 0.48251040601 0.48060269533 0.47878351989 0.477031268 
0.47532580979 0.4736487077 0.47198337548 0.47031519692 0.4686316151 0.46692220302 0.46517872484 0.46339519522 0.46697152594 
0.46714703091 0.46735822801 0.46757319088 0.46776081725 0.46789168858 0.46793885863 0.46787854087 0.46769066796 0.46735930114 
0.46687287356 0.46622425901 0.46541066747 0.46443337936 0.4632973423 0.46201066517 0.63928924088 0.63151487112 0.62443574945 
0.61806303265 0.61239020676 0.60739415337 0.60303685448 0.5992676142 0.59602564634 0.59324286014 0.59084667389 0.58876269798 
0.58691715349 0.58523892764 0.58366120838 0.58212268368 0.42429349916 0.42132757039 0.41831713544 0.41525487016 0.41213744129 