# vtk DataFile Version 5.1
vtk output
ASCII
DATASET POLYDATA
POINTS 252 float
0.560481 0.188366 -0.312942 0.687193 0.183989 -0.307527 0.538831 0.119841 -0.382534 
0.585354 0.123929 -0.361518 0.455861 0.119282 -0.354897 0.672505 0.231311 -0.220261 
0.485772 0.065516 -0.414106 0.748264 0.20056 -0.240559 0.34069 -0.07254 -0.391279 
0.721501 0.237885 -0.143431 0.572928 0.209052 -0.215255 0.632158 0.094534 -0.230115 
0.812034 0.199225 -0.131678 0.366927 0.0418 -0.361348 0.415867 0.113506 -0.290814 
0.440012 0.105779 -0.197191 0.757325 0.231406 -0.07557 -0.404126 0.378727 -0.230941 
0.670357 0.229294 -0.097589 0.578502 0.174224 -0.099701 0.715874 0.204932 0.018335 
-0.458588 0.329658 -0.264747 -0.298835 0.375343 -0.1528 -0.436062 0.409112 -0.205745 
0.282716 -0.048162 -0.321027 -0.301158 0.417028 -0.157817 0.308037 -0.115306 -0.363425 
0.545789 0.147238 -0.036238 0.849217 0.177263 -0.032406 -0.486861 0.348937 -0.24915 
-0.330086 0.422605 -0.100924 -0.405419 0.34888 -0.2225 -0.3672 0.415503 -0.132055 
0.468663 0.122488 -0.115848 -0.499781 0.258998 -0.271629 -0.436675 0.300428 -0.243932 
-0.405643 0.337972 -0.189275 0.785033 0.099542 0.008953 -0.308915 0.43579 -0.131195 
-0.455841 0.159874 -0.278083 0.789012 0.193383 0.051168 -0.466983 0.35542 -0.184534 
-0.216332 0.362148 -0.114918 -0.504123 0.336557 -0.224623 0.533641 -0.089407 -0.045788 
0.448818 -0.039957 -0.276399 0.860271 0.119158 0.101183 -0.34584 0.374045 -0.11354 
-0.217624 0.323076 -0.091019 -0.199816 0.3871 -0.06638 -0.443678 0.305901 -0.208618 
0.396496 0.116472 -0.045051 -0.103177 0.300194 -0.046362 -0.499083 0.264996 -0.208931 
0.221044 -0.149089 -0.2437 0.363486 0.039965 -0.122906 0.343724 0.016693 -0.185937 
0.788736 0.131591 0.158318 0.639351 0.151204 0.0388 -0.316943 0.372673 -0.095274 
-0.22108 0.36475 -0.035867 -0.437876 0.201982 -0.248556 0.574827 0.119986 0.059111 
-0.44713 0.194477 -0.217084 0.29371 -0.057763 -0.13281 -0.493128 0.152571 -0.264473 
-0.129603 0.328154 -0.013536 0.449783 0.1462 -0.000336 -0.137103 0.292263 0.015675 
-0.056144 0.251699 -0.012977 0.40859 0.155205 0.084621 -0.14742 0.269091 -0.055467 
-0.511171 0.196984 -0.238581 -0.464148 0.13313 -0.191754 0.391014 0.158855 0.020906 
0.001734 0.283077 0.023639 0.262598 -0.16929 -0.312087 -0.195611 0.298426 -0.030935 
-0.447113 0.079901 -0.239204 0.071884 0.246109 0.069602 0.486284 0.119459 0.083203 
-0.067456 0.309284 0.0217 0.028721 0.300547 0.069478 0.342799 0.184728 0.060762 
0.275513 0.210582 0.0797 0.108125 0.306939 0.08775 0.314435 0.147558 0.052114 
0.247852 0.274022 0.100892 0.267374 -0.040772 -0.245749 0.311483 0.237999 0.109892 
0.237085 -0.234302 -0.256792 -0.491036 0.083657 -0.218533 0.703986 -0.03244 0.124339 
0.256696 0.281117 0.14221 0.71931 0.149421 0.131173 0.121516 0.31557 0.129871 
0.015196 0.290948 0.100564 0.549926 0.058506 0.13849 0.104119 0.273158 0.073611 
0.013968 0.256536 0.111306 -0.09526 0.2413 0.014743 0.22196 -0.136682 -0.138995 
0.209578 0.254775 0.092804 -0.423973 0.09573 -0.218046 0.338676 0.062866 -0.022799 
-0.496137 0.113355 -0.206504 0.238075 0.209831 0.122266 0.248118 0.250669 0.166036 
0.108433 0.283229 0.151547 0.312419 0.21753 0.142184 0.123238 0.244342 0.107269 
0.356049 0.172789 0.113294 0.014925 0.226829 0.075388 0.132929 0.251042 0.147372 
0.836639 0.061147 0.187786 0.39024 0.119079 0.118785 0.264303 0.208844 0.152145 
0.322266 0.136362 0.114405 -0.43516 0.111108 -0.181039 0.330192 0.016331 0.034154 
0.317649 -0.04694 -0.041059 0.741012 0.033415 0.263362 0.826184 0.038614 0.18971 
0.200848 -0.208777 -0.15324 0.223879 -0.283501 -0.185697 0.692753 0.082449 0.21366 
0.811165 0.011949 0.237636 0.439936 0.058595 0.131922 0.318752 0.117546 0.097833 
0.481576 -0.015776 0.166531 0.305099 -0.227045 -0.159687 0.628383 0.085691 0.145641 
0.364318 0.006323 0.099029 0.540069 -0.026694 0.213794 0.201529 -0.249813 -0.08138 
0.656871 0.028293 0.257368 0.281873 -0.12492 -0.025231 -0.486451 0.077978 -0.093888 
0.407246 -0.065024 0.138894 -0.445884 0.043685 -0.118795 0.222029 -0.193986 -0.032015 
-0.516832 0.058855 -0.097927 0.335712 -0.077337 0.050831 0.404736 -0.275798 0.093479 
-0.476425 0.015688 -0.13615 -0.468302 0.033605 -0.037034 0.23554 -0.337009 -0.040598 
0.66761 -0.055915 0.317391 -0.560623 0.298935 0.176568 -0.482425 -0.039999 -0.006388 
-0.253616 0.177033 0.180358 0.452789 -0.104251 0.211066 -0.517519 0.023437 -0.111201 
-0.430001 0.201342 0.15218 -0.179651 0.051604 0.127384 -0.408017 0.278701 0.199525 
-0.575503 0.171067 0.102946 -0.686595 0.276046 0.135675 0.234836 -0.28932 0.047719 
-0.333054 0.081022 0.108761 -0.301035 0.213023 0.246742 -0.564363 0.302388 0.227899 
-0.155857 -0.047567 0.07814 0.616396 -0.175015 0.248696 -0.518745 0.017147 0.017147 
-0.545929 -0.00151 0.002134 -0.474975 -0.007867 0.011957 -0.475127 0.04245 0.055388 
0.332802 -0.151997 0.109032 -0.527988 -0.041216 -0.016871 -0.212403 0.134296 0.231247 
-0.348452 -0.013808 0.052623 0.24816 -0.224115 0.058445 -0.758409 0.079435 0.011742 
-0.582765 0.028208 0.022963 0.741636 -0.096992 0.306643 -0.393992 0.257427 0.258234 
-0.363222 0.193551 0.230215 -0.632499 0.281719 0.218241 -0.710607 -0.01604 -0.029997 
-0.814612 0.176946 0.052897 -0.274671 -0.101841 0.021455 0.556329 -0.083049 0.300326 
-0.433586 -0.050767 0.012926 -0.859616 0.092692 -0.002236 -0.162399 0.046085 0.181012 
-0.186902 -0.186268 -0.004848 -0.85188 0.165665 0.095224 -0.471642 0.153182 0.183755 
-0.785663 0.230968 0.145586 -0.65756 -0.116807 -0.072834 -0.612319 0.201106 0.178236 
-0.38649 -0.129674 -0.018534 0.239537 -0.339949 -0.054928 -0.844331 0.136591 0.091158 
-0.149122 -0.026365 0.158237 -0.486677 -0.157371 -0.056704 -0.138588 -0.057121 0.127739 
-0.864883 -0.034181 -0.074777 -0.834266 -0.129155 -0.117767 -0.149686 -0.158646 0.064313 
-0.257516 0.068578 0.185673 -0.510188 0.078812 0.134695 -0.656569 0.144714 0.137657 
-0.430881 -0.240933 -0.089466 -0.37328 0.023437 0.135279 -0.722854 -0.18586 -0.125575 
-0.914178 -0.017357 -0.009142 -0.19284 -0.05763 0.131288 -0.378757 -0.057867 0.089645 
-0.894389 0.067858 0.028531 -0.584283 -0.225802 -0.115597 -0.871531 -0.13685 -0.085341 
-0.619524 0.048015 0.093085 -0.58787 -0.325501 -0.170745 -0.815972 0.068059 0.06007 
-0.270259 -0.142815 0.067582 -0.247237 -0.263324 -0.060134 -0.470493 -0.344896 -0.15503 
0.268488 -0.298813 0.113073 -0.471165 -0.100175 0.045705 -0.349997 -0.322841 -0.116285 
-0.689202 -0.071923 0.012171 -0.176777 -0.218189 0.045926 -0.683886 -0.285787 -0.170583 
-0.439081 -0.172563 0.013141 -0.883367 -0.06321 -0.026716 -0.614912 -0.181139 -0.030789 
-0.832714 -0.155229 -0.065279 0.583196 -0.135361 0.331692 -0.207698 -0.284277 0.00267 
-0.395841 -0.271912 -0.031191 0.423287 -0.177276 0.26081 -0.760691 -0.300701 -0.130281 
0.320549 -0.220992 0.174282 -0.298791 -0.352527 -0.054523 0.305454 -0.361582 0.092911 
-0.40501 -0.387581 -0.101414 -0.779662 -0.208669 -0.149601 0.372523 -0.273193 0.242224 
-0.447641 -0.317633 -0.067848 -0.811538 -0.237443 -0.109586 0.628647 -0.206942 0.330937 
0.477113 -0.218171 0.307912 -0.645402 -0.364097 -0.142414 -0.540792 -0.348667 -0.105578 
-0.748304 -0.265621 -0.106808 -0.553374 -0.381363 -0.140213 0.431153 -0.331279 0.239868 
0.531933 -0.278979 0.306332 0.356276 -0.346857 0.184815 -0.550778 -0.082778 -0.030878 

POLYGONS 501 1500
OFFSETS vtktypeint64
0 3 6 9 12 15 18 21 24 
27 30 33 36 39 42 45 48 51 
54 57 60 63 66 69 72 75 78 
81 84 87 90 93 96 99 102 105 
108 111 114 117 120 123 126 129 132 
135 138 141 144 147 150 153 156 159 
162 165 168 171 174 177 180 183 186 
189 192 195 198 201 204 207 210 213 
216 219 222 225 228 231 234 237 240 
243 246 249 252 255 258 261 264 267 
270 273 276 279 282 285 288 291 294 
297 300 303 306 309 312 315 318 321 
324 327 330 333 336 339 342 345 348 
351 354 357 360 363 366 369 372 375 
378 381 384 387 390 393 396 399 402 
405 408 411 414 417 420 423 426 429 
432 435 438 441 444 447 450 453 456 
459 462 465 468 471 474 477 480 483 
486 489 492 495 498 501 504 507 510 
513 516 519 522 525 528 531 534 537 
540 543 546 549 552 555 558 561 564 
567 570 573 576 579 582 585 588 591 
594 597 600 603 606 609 612 615 618 
621 624 627 630 633 636 639 642 645 
648 651 654 657 660 663 666 669 672 
675 678 681 684 687 690 693 696 699 
702 705 708 711 714 717 720 723 726 
729 732 735 738 741 744 747 750 753 
756 759 762 765 768 771 774 777 780 
783 786 789 792 795 798 801 804 807 
810 813 816 819 822 825 828 831 834 
837 840 843 846 849 852 855 858 861 
864 867 870 873 876 879 882 885 888 
891 894 897 900 903 906 909 912 915 
918 921 924 927 930 933 936 939 942 
945 948 951 954 957 960 963 966 969 
972 975 978 981 984 987 990 993 996 
999 1002 1005 1008 1011 1014 1017 1020 1023 
1026 1029 1032 1035 1038 1041 1044 1047 1050 
1053 1056 1059 1062 1065 1068 1071 1074 1077 
1080 1083 1086 1089 1092 1095 1098 1101 1104 
1107 1110 1113 1116 1119 1122 1125 1128 1131 
1134 1137 1140 1143 1146 1149 1152 1155 1158 
1161 1164 1167 1170 1173 1176 1179 1182 1185 
1188 1191 1194 1197 1200 1203 1206 1209 1212 
1215 1218 1221 1224 1227 1230 1233 1236 1239 
1242 1245 1248 1251 1254 1257 1260 1263 1266 
1269 1272 1275 1278 1281 1284 1287 1290 1293 
1296 1299 1302 1305 1308 1311 1314 1317 1320 
1323 1326 1329 1332 1335 1338 1341 1344 1347 
1350 1353 1356 1359 1362 1365 1368 1371 1374 
1377 1380 1383 1386 1389 1392 1395 1398 1401 
1404 1407 1410 1413 1416 1419 1422 1425 1428 
1431 1434 1437 1440 1443 1446 1449 1452 1455 
1458 1461 1464 1467 1470 1473 1476 1479 1482 
1485 1488 1491 1494 1497 1500 
CONNECTIVITY vtktypeint64
231 227 245 223 231 230 230 231 235 
233 224 244 224 214 244 245 246 244 
231 245 240 214 247 244 244 247 245 
218 237 247 237 240 245 247 237 245 
235 231 237 231 240 237 221 235 237 
243 232 239 242 229 243 239 219 250 
250 219 236 236 143 248 236 248 250 
250 248 239 143 249 248 243 239 248 
249 243 248 249 163 242 242 243 249 
135 182 147 121 135 147 135 133 182 
136 140 168 140 158 172 140 134 158 
133 129 151 129 138 151 138 142 168 
138 132 142 149 145 166 144 139 149 
139 145 149 164 141 165 137 164 145 
155 150 153 156 148 153 148 155 153 
122 126 175 92 122 175 114 121 126 
130 44 143 124 130 193 142 136 168 
137 141 164 114 126 122 114 57 121 
138 168 151 186 162 200 162 186 181 
192 181 186 197 185 195 197 162 185 
162 154 185 159 154 162 159 162 171 
171 162 181 183 181 192 183 171 181 
251 192 196 195 185 201 185 170 201 
185 150 170 154 150 185 183 192 251 
149 183 251 169 149 251 149 166 183 
169 144 149 251 196 190 167 159 171 
167 171 183 170 177 201 159 150 154 
17 25 31 50 31 36 35 31 50 
35 17 31 21 17 35 34 21 39 
29 21 34 234 172 219 212 228 226 
223 186 200 230 186 223 221 217 235 
217 230 235 234 219 239 232 168 234 
232 234 239 182 151 232 182 232 243 
229 182 243 193 143 236 193 236 158 
219 158 236 143 163 249 147 229 242 
163 175 242 175 147 242 212 241 228 
212 238 241 227 228 246 241 238 233 
246 228 241 246 241 233 246 233 244 
245 227 246 30 32 47 38 32 30 
38 25 32 32 23 41 25 23 32 
50 36 41 41 23 43 23 29 43 
23 21 29 43 29 34 37 12 28 
11 12 37 13 8 24 16 18 20 
10 19 18 19 10 15 10 14 15 
14 88 15 88 14 13 15 33 19 
25 17 23 23 17 21 28 12 16 
16 9 18 7 12 11 12 9 16 
6 11 45 6 13 4 6 45 8 
13 6 8 18 5 10 5 18 9 
10 0 14 4 13 14 9 12 7 
9 7 5 1 7 11 1 0 5 
7 1 5 3 1 11 0 1 3 
6 3 11 2 0 3 0 2 4 
6 2 3 2 6 4 5 0 10 
0 4 14 217 186 230 223 216 231 
192 217 204 204 217 221 204 221 218 
140 172 168 133 151 182 121 147 175 
184 207 210 184 198 207 202 191 203 
134 146 158 172 158 219 168 172 234 
151 168 232 147 182 229 158 146 193 
44 163 143 163 92 175 187 210 194 
194 210 215 203 194 213 226 215 207 
215 213 194 198 212 207 218 221 237 
197 208 223 208 216 223 200 162 197 
231 216 225 211 218 214 247 214 218 
197 195 208 216 220 225 192 204 196 
211 196 204 204 218 211 195 201 208 
208 209 216 209 220 216 224 211 214 
201 205 208 208 205 209 192 186 217 
177 178 191 155 148 161 180 157 173 
180 184 187 184 210 187 180 173 184 
161 157 178 178 189 194 203 191 194 
191 178 194 178 157 189 189 187 194 
189 180 187 157 180 189 175 126 121 
44 92 163 134 193 146 193 130 143 
134 124 193 148 157 161 166 167 183 
174 164 165 167 164 174 164 167 166 
141 152 165 179 174 251 165 251 174 
165 169 251 165 152 169 152 144 169 
179 251 190 170 150 160 201 177 188 
201 188 205 215 226 222 202 203 213 
198 199 212 222 226 228 213 215 222 
188 202 205 198 206 199 199 206 238 
212 199 238 198 190 206 222 228 227 
220 213 222 220 209 213 209 202 213 
205 202 209 238 206 224 238 224 233 
206 190 211 225 222 227 225 220 222 
206 211 224 190 196 211 231 225 227 
170 160 177 156 153 159 156 159 167 
156 167 174 198 179 190 160 176 177 
160 155 176 156 174 173 173 174 179 
173 179 198 176 178 177 191 188 177 
188 191 202 157 156 173 184 173 198 
153 150 159 150 155 160 157 148 156 
58 131 94 88 54 101 101 64 88 
62 97 131 58 62 131 62 80 97 
55 56 64 62 27 80 67 70 80 
27 67 80 70 67 74 70 83 111 
70 74 83 83 74 86 89 109 111 
83 89 111 84 83 86 89 93 109 
89 87 93 83 87 89 84 106 102 
102 87 84 87 83 84 85 87 102 
87 95 93 87 85 95 98 102 110 
85 82 95 98 85 102 75 98 79 
98 82 85 98 75 82 112 69 79 
100 69 112 69 75 79 52 75 69 
95 82 96 99 68 100 96 81 99 
81 68 99 82 81 96 75 81 82 
68 77 100 69 100 71 71 52 69 
71 100 77 103 63 118 39 103 78 
61 63 103 39 61 103 65 78 91 
65 39 78 66 68 81 57 40 94 
51 104 86 52 81 75 118 63 73 
63 53 73 73 72 105 72 91 105 
72 65 91 46 40 57 91 78 144 
98 110 79 110 102 106 106 84 86 
55 64 120 104 55 120 54 76 90 
92 37 122 37 46 122 46 57 114 
73 105 137 105 91 152 152 91 144 
103 118 139 78 103 144 144 103 139 
100 112 99 79 110 112 95 96 108 
108 96 99 110 113 112 108 99 113 
99 112 113 107 95 108 110 106 113 
107 108 113 106 116 113 107 113 116 
93 95 107 109 93 107 109 107 116 
86 128 106 106 128 117 117 109 116 
111 109 117 117 116 106 70 111 115 
115 111 117 117 128 115 86 104 119 
86 119 128 128 119 132 80 70 115 
97 80 127 80 115 127 120 64 136 
119 104 120 142 119 120 45 44 130 
45 130 26 90 26 130 26 90 76 
24 76 54 24 26 76 20 58 94 
40 20 94 56 88 64 88 24 54 
58 27 62 67 33 51 33 55 51 
51 55 104 67 51 74 74 51 86 
52 66 81 48 52 71 52 49 66 
77 48 71 66 60 68 66 49 60 
42 52 48 42 49 52 72 34 65 
34 39 65 60 77 68 59 48 77 
61 35 63 19 27 58 27 33 67 
124 134 123 125 135 121 131 133 135 
125 131 135 136 101 140 140 123 134 
140 101 123 97 129 133 131 97 133 
97 127 129 127 138 129 127 132 138 
127 128 132 115 128 127 132 119 142 
139 118 145 118 137 145 73 137 118 
141 105 152 124 90 130 54 124 123 
90 124 54 57 125 121 57 94 125 
64 101 136 101 54 123 120 136 142 
122 46 114 44 37 92 94 131 125 
60 59 77 49 30 60 60 30 59 
30 47 59 36 59 47 63 50 53 
53 50 41 88 13 24 40 16 20 
28 16 40 41 43 53 32 41 47 
41 36 47 31 25 22 36 31 22 
22 25 42 36 22 59 22 42 48 
22 48 59 25 38 49 42 25 49 
38 30 49 21 35 39 39 35 61 
55 15 56 15 55 33 19 33 27 
15 88 56 58 18 19 20 18 58 
8 26 24 8 45 26 45 11 44 
11 37 44 28 40 46 28 46 37 
43 34 72 35 50 63 53 43 72 
215 210 207 226 207 212 200 197 223 
155 161 176 176 161 178 145 164 166 
53 72 73 105 141 137 
POINT_DATA 252
SCALARS k float
LOOKUP_TABLE default
0.190883 0.565497 0.173301 -0.0631841 0.131977 0.144617 0.694223 0.388225 0.522822 
0.0951686 0.106151 -4.01735e-05 0.32402 0.184453 0.123015 -0.0448137 0.134486 0.161651 
0.0895584 -0.0475647 0.0695581 0.197938 -0.675177 0.76297 0.156856 0.0805078 0.20103 
-0.156676 0.469902 0.460749 0.526318 -0.359202 -0.164635 -0.162009 0.377644 -0.457753 
-0.534604 -0.000367761 0.694623 0.533766 0.162795 -0.0987819 0.0345298 0.603245 4.76837e-07 
-5.48363e-06 0.483354 -0.0918199 -0.211125 0.258677 -0.871786 -0.172381 -0.15777 -0.132601 
0.164548 -0.198472 -0.0386791 0.160088 -0.0306424 -0.556648 0.0815388 -0.0841665 -0.13467 
-0.450752 -0.0270046 0.304971 -0.389869 -0.197722 -0.115883 0.190988 -0.11903 0.407852 
0.0815755 -0.84595 -0.148468 -0.160333 0.118287 0.0139082 0.700574 -0.00141811 -0.213559 
-0.286694 -0.283528 -0.585584 -0.332853 0.126432 -0.62315 0.0736332 0.126212 0.189576 
0.409003 0.0977143 -2.38419e-07 0.553169 0.0702428 0.521486 0.0471613 -0.143501 -0.428644 
0.17989 0.296552 0.0762669 -0.446851 0.460436 -0.21155 -0.619114 -0.67021 0.408958 
0.316242 0.240932 -0.49101 -0.614876 0.277905 -0.0735238 0.232897 -0.185863 -0.0409571 
-0.172506 -0.267111 -0.16095 -0.161677 0.160713 0.0380166 0.105448 0.43494 0.0617105 
0.276384 -0.208672 -0.607922 -0.144623 -3.75509e-06 -0.0385129 -0.203237 -0.0340706 0.133105 
0.0699856 -0.0351648 -0.0178187 -0.147366 0.0134487 0.0786589 -0.0320607 -0.163611 -1.84774e-06 
0.0760738 0.0209046 0.569732 0.160076 0.161444 -1.18383 0.241959 -0.0326053 0.0240934 
2.68221e-06 0.125591 0.345475 -6.67572e-06 0.287525 0.0846109 -4.6134e-05 0.271716 0.512123 
0.189395 -3.15309e-05 -1.17185 -1.13949 -1.2402 -0.0610672 -0.0376641 -1.29476 0.769466 
9.23872e-06 0.0644923 -9.35793e-05 -0.0634108 0.575416 0.503772 -0.00569889 0.356906 -1.52588e-05 
0.181495 -2.7597e-05 0.109655 -0.0882115 0.182162 0.173055 0.185745 0.49265 -8.34465e-07 
0.555866 -7.15256e-06 1.27554e-05 4.50611e-05 0.0200997 0.0559555 0.445507 -1.26362e-05 0.199491 
0.188378 0.118288 0.293339 -0.0154074 1.3113e-06 -2.86102e-06 -1.96695e-05 3.09944e-06 -3.20673e-05 
0.875089 -0.0362796 5.96046e-08 0.127855 -8.58307e-06 0.307073 4.23193e-06 0.127152 -0.0144918 
1.5974e-05 0.171877 0.205569 0.162061 -1.66893e-06 0.188765 -3.24845e-06 0.159996 0.170574 
7.7486e-06 -0.0066793 -1.01328e-06 -0.0105905 0.134317 0.635232 -0.00070864 0.0892377 0.648474 
0.0874014 0.469999 0.383193 0.549459 0.183275 0.216788 0.000376582 0.201795 0.503691 
0.165938 0.537523 -0.00126278 -0.000684023 0.260949 0.335325 0.482536 0.265447 -0.0750791 

FIELD FieldData 7
h 1 252 float
2.52396 3.38623 3.84156 0.0155685 1.5951 2.73251 0.00842213 0.145097 -0.161467 
1.28213 2.3024 0.00381057 0.0241811 2.72658 2.37794 2.03285 2.66255 2.81423 
2.31403 2.05272 2.3641 3.81644 0.416555 3.57812 1.94196 -0.475214 0.00570007 
1.1014 3.86715 5.88082 -0.491271 0.500355 -0.295456 0.812116 4.59557 -1.22204 
-20.8895 0.00871996 32.1263 1.06614 2.80646 -1.79314 0.312628 1.88022 0.00182167 
0.0026547 2.93853 -1.99113 -3.3589 2.02743 -3.11404 0.133632 -0.185878 -3.90689 
3.17149 1.45739 2.02876 3.25614 1.99172 -0.545812 1.41375 -2.65374 1.27891 
-2.10917 1.97892 2.93733 2.21341 0.971461 1.41742 3.0616 0.965343 1.27073 
0.696699 -2.98759 0.170149 -1.56838 5.47264 -0.500952 1.52645 0.656968 1.13409 
1.24849 -0.0971337 0.890735 -1.46737 -1.05919 -0.845908 0.285798 2.3201 1.66372 
0.00801978 -0.31335 0.00790957 3.75274 2.31198 -0.405376 5.24523 0.781839 0.906747 
1.6013 0.948972 2.33558 -0.364839 -1.70101 -0.399884 -4.84268 -4.51846 5.78479 
3.92634 2.16456 -1.69759 1.70702 -5.38151 -0.238436 5.78019 0.862277 1.08997 
0.191146 -3.22688 -0.200549 1.41898 1.79965 0.00585089 3.10036 4.96563 2.50421 
6.11517 0.836409 -0.59459 0.768148 0.00436344 2.06197 0.266852 2.00278 1.91627 
2.26156 1.91139 -3.54245 0.964402 -0.797521 2.39913 -2.88473 1.32739 0.00346602 
-0.054166 -0.567433 4.21178 2.56827 0.817403 -0.463736 0.888021 2.05066 -2.56415 
0.892116 0.901903 0.57173 1.10994 1.14121 1.55377 0.991798 1.47055 -0.0245637 
1.19564 0.00627615 -1.71186 -0.879719 -0.679808 0.361315 2.02211 -0.292208 -0.378762 
0.940491 2.36311 1.16746 0.320124 0.00539103 -0.103606 0.0434697 -0.62669 1.05027 
1.19864 1.27737 2.36367 0.364743 1.17087 0.0520728 1.21511 -0.0242598 0.0499263 
1.93067 0.99938 0.051697 0.976247 0.00993119 0.057749 0.054222 0.881682 0.362894 
1.30375 0.700512 0.376766 0.064969 0.0494579 0.0665448 1.09674 0.0546648 1.08142 
19.9356 0.0633365 0.0503026 -0.438015 1.05483 0.148281 0.0468961 0.593195 0.0666914 
0.0710523 1.17442 0.695384 1.3825 0.0424885 0.637859 0.0556408 -0.66052 0.576538 
0.0498156 0.0601094 0.0538276 0.0666379 1.6883 -0.470496 0.0717548 2.29747 1.21138 
2.40125 -0.394696 0.17866 -0.170252 0.658002 1.39528 0.0627251 -0.136636 19.3349 
2.24582 -0.207062 0.0557292 0.0602531 35.6801 -0.0293449 0.0139983 4.9497 0.337837 

kmin 1 252 float
2.92104 4.85217 4.68232 0.0215312 2.57408 2.97779 0.0185847 0.24781 -0.0771552 
2.3154 2.54854 0.0066483 0.0425836 2.9068 2.54686 2.06268 3.07807 6.68033 
2.50297 2.085 2.54491 6.91388 1.8831 4.93472 2.65772 -0.389993 0.00936817 
2.65521 5.42159 8.86825 0.48921 1.84264 0.594919 2.81025 5.46405 2.17363 
-2.94189 0.0104128 62.1918 3.1808 3.0133 0.588823 0.747293 4.76995 0.00490409 
0.00567469 4.18644 0.310213 -0.359081 4.49935 0.60401 3.39068 0.883601 -1.68868 
3.47745 2.50948 2.16272 3.65857 2.05493 0.823734 2.36903 -1.52206 2.54284 
-1.46975 2.04359 3.51094 4.27997 3.84516 2.29052 6.78284 4.0896 3.55165 
4.30055 -0.888151 4.22012 -0.168637 7.47862 0.968592 2.94012 2.31126 3.61344 
2.9553 0.156572 3.76391 1.52093 -0.20264 2.69002 2.00386 2.53214 3.54856 
0.0164634 1.38837 0.0105766 5.73562 2.47967 0.236863 10.1938 2.83552 2.72223 
2.45395 1.41639 2.59355 1.34738 0.0623517 3.68 -2.41405 -0.843929 10.6823 
7.12544 3.96536 0.873494 3.80824 0.583921 1.03211 8.25772 3.73359 3.16063 
3.61171 -0.0190328 3.67017 2.74518 2.60849 0.00786015 3.27879 7.70736 2.64167 
8.84705 3.56074 3.37329 2.79563 0.00763301 2.10539 3.26406 2.15698 2.65067 
2.45684 1.94282 1.50096 2.58308 0.769866 2.62881 0.20712 2.52333 0.00630977 
1.88928 0.932238 5.43411 2.8414 0.936159 1.21758 1.00335 2.07472 1.95692 
0.926275 0.99007 0.815634 1.22703 1.28434 2.51956 1.17298 2.02768 0.257664 
1.30899 0.00989371 1.43985 0.941292 1.09412 0.625822 2.05298 1.07008 -0.354037 
1.22733 2.55309 1.22827 0.603539 0.0232927 -0.0372236 0.0726899 -0.592372 1.32903 
1.319 1.30661 2.53979 0.651375 1.30528 0.324284 1.39887 0.291167 0.06827 
2.97161 1.22657 0.0727585 1.23977 0.0230314 0.0851076 0.0729602 1.16432 0.854993 
1.46722 0.813691 0.655611 0.077555 0.0543102 0.0698277 1.17123 0.0581605 1.08828 
37.2962 0.0768784 0.0552097 -0.316753 1.2118 0.546985 0.0530924 0.82796 0.0745975 
0.0759101 1.37685 0.826875 2.42636 0.0473943 0.877472 0.0597675 -0.570512 0.680348 
0.0555797 0.0789242 0.0636066 0.0898274 2.55163 -0.389212 0.074374 2.50748 1.9501 
2.79038 -0.359617 0.316821 -0.150072 0.850982 2.48864 0.071856 -0.104941 36.0418 
2.6495 -0.183091 0.0757801 0.0809278 69.9646 0.0635005 0.0295258 6.65124 0.537412 

kmax 1 252 float
2.12688 1.92029 3.00081 0.00960578 0.616119 2.48724 -0.00174042 0.0423827 -0.245778 
0.248862 2.05626 0.000972839 0.00577866 2.54635 2.20903 2.00301 2.24703 -1.05187 
2.12509 2.02044 2.1833 0.719008 -1.04999 2.22153 1.22621 -0.560435 0.00203197 
-0.452409 2.31272 2.89339 -1.47175 -0.841929 -1.18583 -1.18602 3.72708 -4.61771 
-38.837 0.00702717 2.06076 -1.04853 2.59962 -4.1751 -0.122037 -1.00952 -0.00126075 
-0.000365287 1.69061 -4.29248 -6.35871 -0.444486 -6.8321 -3.12342 -1.25536 -6.12509 
2.86552 0.405296 1.8948 2.85372 1.9285 -1.91536 0.458469 -3.78541 0.0149801 
-2.74859 1.91424 2.36372 0.146842 -1.90224 0.544321 -0.659635 -2.15892 -1.01019 
-2.90716 -5.08702 -3.87983 -2.96812 3.46666 -1.9705 0.112768 -0.997324 -1.34526 
-0.458328 -0.350839 -1.98245 -4.45567 -1.91574 -4.38183 -1.43226 2.10806 -0.221125 
-0.000423883 -2.01507 0.00524255 1.76986 2.14429 -1.04761 0.29662 -1.27184 -0.908731 
0.748639 0.48155 2.07761 -2.07706 -3.46438 -4.47977 -7.27131 -8.193 0.887257 
0.727236 0.363764 -4.26867 -0.394196 -11.3469 -1.50898 3.30265 -2.00904 -0.980699 
-3.22941 -6.43473 -4.07126 0.0927924 0.990806 0.00384162 2.92193 2.2239 2.36676 
3.38329 -1.88792 -4.56247 -1.25934 0.00109388 2.01856 -2.73035 1.84858 1.18188 
2.06628 1.87996 -8.58585 -0.654277 -2.36491 2.16944 -5.97657 0.131454 0.000622266 
-1.99761 -2.0671 2.98945 2.29513 0.698647 -2.14505 0.772695 2.02661 -7.08522 
0.857957 0.813736 0.327827 0.99285 0.998077 0.587973 0.810618 0.913408 -0.306792 
1.08228 0.00265858 -4.86357 -2.70073 -2.45374 0.0968088 1.99124 -1.6545 -0.403488 
0.653651 2.17313 1.10666 0.0367085 -0.0125106 -0.169989 0.0142496 -0.661007 0.771506 
1.07829 1.24812 2.18755 0.078111 1.03646 -0.220138 1.03135 -0.339687 0.0315827 
0.889738 0.772191 0.0306354 0.712723 -0.00316902 0.0303905 0.0354837 0.599049 -0.129206 
1.14028 0.587333 0.0979218 0.0523831 0.0446055 0.0632619 1.02225 0.0511691 1.07456 
2.57503 0.0497947 0.0453955 -0.559278 0.897867 -0.250422 0.0406998 0.358429 0.0587854 
0.0661946 0.971991 0.563892 0.33863 0.0375828 0.398245 0.0515141 -0.750529 0.472728 
0.0440516 0.0412946 0.0440487 0.0434483 0.824977 -0.55178 0.0691357 2.08745 0.472667 
2.01212 -0.429774 0.040499 -0.190432 0.465022 0.30192 0.0535942 -0.168332 2.62798 
1.84214 -0.231033 0.0356783 0.0395783 1.39559 -0.12219 -0.00152922 3.24816 0.138261 

hks 16 252 double
0.38618795365 0.38654981504 0.38680884933 0.38695969153 0.3869970263 0.38691560056 0.3867102688 0.38637607131 0.38590834367 
0.38530285321 0.38455595712 0.38366477604 0.38262737711 0.38144296112 0.38011204958 0.37863666917 0.40365934999 0.40372636839 
0.40383607266 0.40395532073 0.40405138635 0.40409303946 0.4040515013 0.40390123088 0.40362051309 0.4031918346 0.40260204938 
0.40184235043 0.40090807649 0.39979839193 0.3985158829 0.39706611475 0.40577689943 0.40592741822 0.40599768759 0.40598925684 
0.40590192894 0.40573370961 0.40548085949 0.40513804476 0.40469857591 0.40415472082 0.40349807519 0.40271997233 0.40181191415 
0.40076600654 0.39957538548 0.3982346233 0.39559865305 0.3969127128 0.39814924616 0.39928839875 0.40031126261 0.40120025644 
0.40193945669 0.40251486914 0.40291463386 0.40312916028 0.40315119361 0.40297581787 0.40260040499 0.40202452295 0.40124981879 
0.40027989402 0.39870099834 0.39834965846 0.39785023679 0.39721917608 0.39647192115 0.39562233696 0.39468223657 0.39366103976 
0.39256557594 0.3914000373 0.390166081 0.38886307147 0.38748844827 0.38603819961 0.38450741839 0.38289091615 0.35529534369 
0.35529958507 0.35529772761 0.35528571139 0.3552572918 0.35520428545 0.35511692114 0.35498427754 0.35479478445 0.35453676226 
0.3541989728 0.35377115574 0.35324452705 0.35261222045 0.35186965753 0.35101483854 0.39451476667 0.39399464648 0.39363176983 
0.39340706831 0.39329827209 0.3932806131 0.39332758457 0.3934117204 0.39350535933 0.3935813627 0.39361376051 0.39357830808 
0.39345294414 0.39321815005 0.39285721831 0.39235644549 0.39023721258 0.38955178333 0.38893163115 0.38835650595 0.38780651139 
0.38726247826 0.38670630441 0.38612125874 0.38549224634 0.38480603134 0.3840514141 0.38321935951 0.38230307505 0.38129803956 
0.38020198682 0.3790148519 0.39051898755 0.38976716448 0.38914778548 0.38862558836 0.38816755736 0.38774334865 0.38732554915 
0.38688979167 0.38641475561 0.3858820857 0.3852762604 0.38458443916 0.38379631266 0.38290397571 0.38190183662 0.38078657258 
0.35064835021 0.35034796699 0.35001775292 0.34966490458 0.34929430491 0.34890839222 0.34850717753 0.34808840902 0.34764787274 
0.34717981035 0.34667742785 0.34613346412 0.34554078582 0.34489297533 0.34418488166 0.34341310917 0.34909074724 0.34636275398 
0.34375508257 0.3412542307 0.33884730012 0.33652235313 0.33426867662 0.33207695825 0.32993938474 0.32784967534 0.32580306522 
0.32379625337 0.32182732876 0.31989568751 0.31800195239 0.31614790527 0.40466345602 0.40276941539 0.40073931589 0.39861640051 
0.39644194878 0.39425435441 0.39208836563 0.38997450252 0.38793865653 0.38600186957 0.38418028338 0.38248524436 0.38092354476 
0.37949777887 0.37820679152 0.37704619665 0.3849074119 0.38266111011 0.38065481295 0.37886636534 0.37727097216 0.37584223983 
0.37455320148 0.37337727413 0.37228910356 0.37126526378 0.37028479041 0.36932954062 0.36838438581 0.36743725483 0.36647905555 
0.36550350877 0.35618226959 0.35576315386 0.35535087573 0.3549413969 0.35453061611 0.35411432048 0.35368810972 0.35324730623 
0.35278686812 0.352301324 0.35178474895 0.35123079924 0.3506328196 0.34998403185 0.34927780732 0.34850801921 0.37018880317 
0.36763151375 0.36516962509 0.36278706675 0.36046814044 0.35819824587 0.35596447232 0.3537560275 0.35156448994 0.34938388761 
0.34721061983 0.34504325258 0.34288222618 0.34072951947 0.33858831502 0.33646270639 0.31667706003 0.31436948921 0.31203960453 
0.30968448093 0.30730321819 0.30489709534 0.30246962839 0.30002653363 0.29757560342 0.29512650519 0.29269051711 0.29028021609 
0.28790913493 0.28559140682 0.28334141538 0.2811734691 0.35207486798 0.35157683032 0.35098086742 0.35029553295 0.34952864284 
0.3486870766 0.34777667055 0.34680220686 0.34576749561 0.34467554152 0.34352878204 0.34232937995 0.34107955166 0.33978191155 
0.33843981437 0.33705767966 0.54292864309 0.5568052191 0.57084607786 0.58501995183 0.59929228872 0.61362505285 0.62797659332 
0.6423015778 0.65655098198 0.6706721172 0.68460867284 0.6983007471 0.71168483988 0.72469378439 0.73725660083 0.74929826429 
0.31410234064 0.31337382765 0.31259627561 0.31176825764 0.3108898415 0.30996254156 0.30898920874 0.30797387125 0.30692154236 
0.30583801406 0.30472965609 0.30360323902 0.3024657976 0.30132454694 0.30018685952 0.29906030576 0.30944845029 0.30645100446 
0.30351436087 0.30063761134 0.2978214121 0.2950679519 0.2923808327 0.2897648768 0.28722587751 0.28477031293 0.28240504334 
0.28013701304 0.27797297722 0.27591927268 0.27398164942 0.27216517635 0.35941024686 0.35691895136 0.35439236485 0.35182689009 
0.34922032211 0.34657205011 0.34388318777 0.34115663035 0.33839704267 0.33561078644 0.33280579919 0.32999143955 0.3271783152 
0.32437810964 0.32160342317 0.3188676416 0.57214254933 0.58490380677 0.59779209144 0.61075874986 0.62375213553 0.63671787324 
0.64959916752 0.66233714515 0.67487121577 0.68713942904 0.69907880333 0.71062559872 0.72171550834 0.7322837451 0.74226500737 
0.7515933159 0.54244719351 0.55621727031 0.57018909389 0.58435146584 0.59869232072 0.61319802152 0.62785259428 0.64263691611 
0.6575278681 0.67249746243 0.68751195212 0.70253093136 0.71750643579 0.73238205415 0.74709206585 0.76156062344 0.55865405611 
0.57207349112 0.58568835432 0.59946617042 0.61337081428 0.62736235927 0.64139699912 0.6554270405 0.66940095418 0.68326346535 
0.69695565746 0.7104150611 0.72357569956 0.73636806601 0.74871901407 0.760551553 0.33920767729 0.33884442359 0.33844722011 