# vtk DataFile Version 5.1
vtk output
ASCII
DATASET POLYDATA
POINTS 252 float
0.614568 0.366995 0.025249 0.595682 0.358978 0.082941 -0.531671 0.384003 -0.097493 
0.526341 0.337584 0.082629 0.674275 0.355355 -0.016206 -0.487438 0.352284 -0.033429 
-0.604786 0.348382 -0.001411 -0.411686 0.354913 -0.135778 -0.398233 0.327729 -0.061972 
-0.672653 0.320541 0.022968 -0.520941 0.300013 0.019923 0.713862 0.323984 -0.098091 
0.514813 0.338203 0.184381 -0.741513 0.321682 -0.031192 -0.336947 0.293629 -0.080809 
-0.401989 0.275812 -0.017645 0.63319 0.336145 -0.052342 0.723455 0.322873 -0.077047 
-0.76224 0.255371 0.050985 -0.321571 0.297549 -0.164292 0.650012 0.258479 0.014972 
0.458437 0.291325 0.167568 0.709977 0.270524 -0.148801 -0.289627 0.2539 -0.096182 
-0.624756 0.276741 0.052576 -0.29081 0.190698 -0.053244 0.43323 0.230959 0.286957 
0.719022 0.171881 -0.072005 0.558912 0.235007 0.130128 0.500138 0.15977 0.203437 
-0.850946 0.199562 0.017211 -0.555244 0.244679 -0.090657 -0.245436 0.216892 -0.189043 
-0.346883 0.243126 -0.156892 -0.40344 0.151978 -0.138 -0.36443 0.146696 -0.014166 
0.75526 0.194946 -0.204722 -0.696783 0.234717 0.075001 0.407021 0.217141 0.233399 
0.800961 0.220687 -0.189607 -0.476321 0.214904 0.020802 -0.678833 0.186136 -0.051069 
-0.82575 0.242834 -0.005048 0.788694 0.120313 -0.160592 -0.233964 0.175791 -0.113678 
0.416733 0.053949 0.221162 0.802772 0.221156 -0.177341 0.783219 0.095741 -0.243023 
-0.824971 0.163893 0.073422 -0.312156 0.059043 -0.167189 -0.767177 0.13858 0.097601 
-0.208514 0.134227 -0.17832 0.627301 -0.007483 -0.0457 -0.626108 0.180657 0.068458 
0.538891 0.068695 0.066146 0.716704 0.095624 -0.159098 -0.711788 0.053727 0.094559 
0.840975 0.104361 -0.235578 -0.440582 0.136929 0.03602 -0.477852 0.09375 0.109351 
-0.537325 0.147841 0.065845 0.584389 0.096161 0.009179 -0.305789 0.048872 -0.033714 
-0.192977 0.077765 -0.129166 -0.561206 0.045627 0.138274 -0.676616 0.009201 -0.051484 
0.844025 0.055093 -0.230304 -0.440047 0.059741 0.135332 -0.476392 0.035829 0.201983 
-0.210928 0.080875 -0.199434 -0.802013 0.025525 0.108115 0.464858 0.15007 0.159897 
-0.185426 0.027332 -0.203385 -0.885822 0.099767 0.036877 -0.241851 0.100439 -0.069038 
0.611606 0.073744 0.062385 -0.620487 0.078 0.096089 -0.032176 0.035156 -0.133626 
0.564493 0.036468 0.01431 0.295962 0.034877 -0.197613 0.44116 0.034607 -0.07907 
-0.251542 0.034636 0.284017 0.130108 0.035673 -0.231803 -0.374733 0.034256 0.292641 
0.463218 0.022541 -0.037342 -0.856287 0.047717 0.087125 0.365801 0.078745 0.286977 
-0.889363 0.00351 0.052315 -0.410467 0.044109 0.095737 -0.13734 0.035002 0.154061 
-0.360828 0.0142 0.256952 -0.109953 0.028263 -0.037018 0.374556 0.013922 -0.09852 
0.842726 0.005994 -0.246679 -0.506095 0.015695 0.199049 0.546236 0.005426 0.038591 
-0.092365 0.034403 -0.007421 -0.002374 0.016422 -0.122542 0.217417 0.027728 -0.254978 
0.302626 0.016022 -0.235824 -0.065059 0.021667 -0.137954 -0.421305 0.021052 0.289663 
0.513642 0.035176 -0.04332 -0.142245 0.022408 0.079736 -0.187728 0.017789 0.178674 
-0.08769 0.018151 0.08537 0.469135 0.027348 -0.094704 -0.350861 0.012652 0.323063 
-0.436595 0.03059 0.212499 -0.894261 0.080467 0.018943 -0.149737 0.023216 0.215431 
-0.268071 0.005756 0.325087 0.588352 -0.004632 -0.018327 0.380821 0.023663 -0.169363 
0.450064 7.7e-05 -0.125882 -0.19284 0.005986 0.284486 0.106385 0.02602 -0.196217 
-0.071196 -0.018404 0.018986 0.277516 0.022947 -0.185051 -0.278816 0.018222 0.260497 
0.036972 0.026823 -0.214536 -0.212354 -0.043923 -0.199584 -0.644818 -0.051822 0.098066 
0.467023 -0.002118 -0.022603 -0.138663 -0.003254 0.217191 0.363429 -0.058357 0.286248 
-0.051735 0.017395 -0.045593 0.203571 0.024692 -0.209938 -0.419126 -0.007339 0.190439 
-0.145257 0.003731 0.055226 0.137119 0.005083 -0.264463 -0.106823 0.003242 -0.081711 
0.760145 -0.015851 -0.124699 -0.421513 -0.010205 0.297317 0.531831 0.006166 -0.060224 
-0.442744 -0.038135 0.216727 -0.389803 -0.023428 0.24304 -0.113732 -0.020205 -0.052299 
0.393123 0.04328 0.338858 -0.190388 -0.020675 0.177678 0.307335 -0.018314 -0.231296 
-0.036951 -0.019259 -0.08451 0.260556 -0.018585 -0.191507 -0.565487 -0.052618 0.130731 
-0.362793 0.054647 0.009928 -0.066543 -0.018606 -0.142169 0.501572 -0.026109 -0.011494 
-0.143207 -0.026931 0.205214 0.086575 -0.003362 -0.170978 0.166045 -0.021836 -0.205429 
0.480213 -0.02262 -0.091094 -0.348787 -0.024826 0.31705 0.141377 -0.034237 -0.243021 
-0.000157 -0.013272 -0.208747 -0.087773 -0.018433 0.091858 -0.303839 -0.020365 0.265296 
-0.138265 -0.024993 0.062058 0.387202 -0.033329 -0.113346 0.234278 -0.014129 -0.262772 
0.040656 -0.03592 -0.194873 0.552956 0.075067 0.136894 0.789303 -0.046634 -0.250936 
0.030156 -0.019784 -0.149247 0.311894 -0.034811 -0.195941 -0.237563 -0.018329 0.232177 
0.236413 -0.036405 -0.230452 -0.049401 -0.036204 -0.111242 -0.098451 -0.036285 -0.012951 
-0.12963 -0.035962 0.110709 0.513224 -0.035973 -0.036137 -0.170971 -0.036354 0.201995 
-0.23205 -0.035432 0.285485 -0.372974 -0.037563 0.286886 0.842189 -0.107184 -0.231159 
-0.495166 -0.030265 0.199771 -0.395591 -0.008886 0.087882 -0.846625 0.045975 0.002658 
0.706153 -0.180215 -0.056956 0.531679 -0.053413 0.074557 0.559893 -0.034099 0.020324 
-0.449789 -0.052552 0.173036 -0.278917 -0.118941 -0.178221 0.665138 -0.026951 -0.004714 
-0.226809 -0.007517 -0.074473 -0.371765 -0.075843 0.011933 0.716877 -0.104948 -0.159002 
-0.302841 -0.07681 -0.038329 0.596161 -0.073584 -0.006563 -0.70462 -0.066042 0.092586 
-0.190368 -0.063523 -0.1704 0.378947 -0.053172 0.328921 -0.905136 -0.069325 0.021829 
0.426487 -0.098264 0.294931 -0.5012 -0.091475 0.117548 -0.436154 -0.080461 0.097727 
-0.871953 -0.134309 0.034552 -0.782625 -0.110582 0.101244 0.405605 -0.156559 0.320213 
-0.843933 -0.158025 0.001128 -0.660602 -0.194938 -0.057215 0.383349 -0.155678 0.262295 
0.438901 -0.268824 0.191693 -0.849957 -0.095178 0.083665 -0.196289 -0.092253 -0.129392 
-0.21537 -0.12275 -0.191598 -0.626689 -0.171419 0.069258 0.765237 -0.168877 -0.220311 
-0.481614 -0.088892 -0.113709 0.526519 -0.164755 0.169573 -0.385774 -0.169937 -0.008864 
-0.232946 -0.180813 -0.118237 -0.272868 -0.176884 -0.061613 -0.531117 -0.161782 0.055577 
-0.443313 -0.146611 0.030518 -0.802944 -0.213616 0.060083 -0.252743 -0.223088 -0.186865 
0.822111 -0.172208 -0.204347 -0.446385 -0.251372 0.002149 -0.723987 -0.206143 0.082062 
0.78659 -0.259612 -0.16366 -0.283323 -0.247854 -0.099819 0.417182 -0.209316 0.286269 
0.787972 -0.228458 -0.160176 -0.84178 -0.218559 0.001507 0.552219 -0.228223 0.048312 
-0.378291 -0.268353 -0.02642 -0.713188 -0.294171 0.037397 -0.656031 -0.265148 0.060367 
-0.749553 -0.295006 -0.029022 0.695615 -0.289443 -0.13225 0.751355 -0.313623 -0.114122 
0.507454 -0.333713 0.16784 -0.334118 -0.293773 -0.084637 -0.627741 -0.319935 -0.067416 
-0.733417 -0.32858 -0.033434 0.718447 -0.343694 -0.072346 -0.567458 -0.295194 0.033791 
-0.340221 -0.315483 -0.158048 0.48501 -0.308978 0.221535 -0.395695 -0.329427 -0.066489 
0.607947 -0.344576 -0.021915 -0.611997 -0.347149 0.001466 0.624024 -0.336247 0.046258 
-0.493288 -0.302408 0.009115 -0.49515 -0.331715 -0.110015 0.584324 -0.368064 0.07536 
0.567891 -0.353561 0.117535 -0.483984 -0.356425 -0.042544 0.664082 -0.372453 -0.006822 
0.514843 -0.333784 0.095733 -0.432119 -0.355322 -0.115476 -0.603514 -0.370803 -0.06919 

POLYGONS 501 1500
OFFSETS vtktypeint64
0 3 6 9 12 15 18 21 24 
27 30 33 36 39 42 45 48 51 
54 57 60 63 66 69 72 75 78 
81 84 87 90 93 96 99 102 105 
108 111 114 117 120 123 126 129 132 
135 138 141 144 147 150 153 156 159 
162 165 168 171 174 177 180 183 186 
189 192 195 198 201 204 207 210 213 
216 219 222 225 228 231 234 237 240 
243 246 249 252 255 258 261 264 267 
270 273 276 279 282 285 288 291 294 
297 300 303 306 309 312 315 318 321 
324 327 330 333 336 339 342 345 348 
351 354 357 360 363 366 369 372 375 
378 381 384 387 390 393 396 399 402 
405 408 411 414 417 420 423 426 429 
432 435 438 441 444 447 450 453 456 
459 462 465 468 471 474 477 480 483 
486 489 492 495 498 501 504 507 510 
513 516 519 522 525 528 531 534 537 
540 543 546 549 552 555 558 561 564 
567 570 573 576 579 582 585 588 591 
594 597 600 603 606 609 612 615 618 
621 624 627 630 633 636 639 642 645 
648 651 654 657 660 663 666 669 672 
675 678 681 684 687 690 693 696 699 
702 705 708 711 714 717 720 723 726 
729 732 735 738 741 744 747 750 753 
756 759 762 765 768 771 774 777 780 
783 786 789 792 795 798 801 804 807 
810 813 816 819 822 825 828 831 834 
837 840 843 846 849 852 855 858 861 
864 867 870 873 876 879 882 885 888 
891 894 897 900 903 906 909 912 915 
918 921 924 927 930 933 936 939 942 
945 948 951 954 957 960 963 966 969 
972 975 978 981 984 987 990 993 996 
999 1002 1005 1008 1011 1014 1017 1020 1023 
1026 1029 1032 1035 1038 1041 1044 1047 1050 
1053 1056 1059 1062 1065 1068 1071 1074 1077 
1080 1083 1086 1089 1092 1095 1098 1101 1104 
1107 1110 1113 1116 1119 1122 1125 1128 1131 
1134 1137 1140 1143 1146 1149 1152 1155 1158 
1161 1164 1167 1170 1173 1176 1179 1182 1185 
1188 1191 1194 1197 1200 1203 1206 1209 1212 
1215 1218 1221 1224 1227 1230 1233 1236 1239 
1242 1245 1248 1251 1254 1257 1260 1263 1266 
1269 1272 1275 1278 1281 1284 1287 1290 1293 
1296 1299 1302 1305 1308 1311 1314 1317 1320 
1323 1326 1329 1332 1335 1338 1341 1344 1347 
1350 1353 1356 1359 1362 1365 1368 1371 1374 
1377 1380 1383 1386 1389 1392 1395 1398 1401 
1404 1407 1410 1413 1416 1419 1422 1425 1428 
1431 1434 1437 1440 1443 1446 1449 1452 1455 
1458 1461 1464 1467 1470 1473 1476 1479 1482 
1485 1488 1491 1494 1497 1500 
CONNECTIVITY vtktypeint64
53 40 24 53 24 37 15 40 35 
35 62 25 53 50 56 74 25 62 
148 97 162 98 79 99 56 70 188 
14 15 25 25 15 35 23 14 25 
32 23 44 23 25 44 37 48 50 
44 25 74 44 74 63 85 48 73 
50 48 70 70 48 85 56 50 70 
74 62 183 63 74 183 131 100 145 
100 120 153 100 153 145 120 77 116 
116 77 97 100 77 120 82 120 116 
116 97 148 127 82 116 82 127 98 
98 99 158 85 87 202 70 202 196 
70 85 202 188 70 196 183 62 186 
63 183 203 63 203 189 145 153 166 
166 153 159 141 166 162 162 166 159 
37 18 48 18 30 48 14 8 15 
40 15 10 15 5 10 8 5 15 
40 10 24 6 24 10 6 9 24 
24 9 37 9 18 37 5 6 10 
213 212 217 213 194 212 143 205 212 
186 184 209 184 213 209 184 194 213 
193 143 212 143 122 205 122 188 205 
163 142 165 162 97 141 141 167 166 
137 145 166 167 137 166 137 131 145 
184 186 62 144 184 62 144 175 184 
122 56 188 99 113 140 79 113 99 
118 127 142 79 127 118 98 127 79 
97 126 141 77 126 97 91 100 131 
77 96 126 77 100 91 96 77 91 
131 137 129 129 91 131 144 88 175 
76 122 64 122 76 56 35 144 62 
144 35 58 144 58 88 60 76 64 
53 56 76 35 40 58 59 58 60 
58 40 60 40 53 60 60 53 76 
37 50 53 193 212 194 180 193 194 
180 174 193 163 150 157 140 150 163 
113 150 140 157 142 163 92 142 157 
141 117 167 126 117 141 156 137 167 
129 137 156 175 194 184 128 180 194 
175 128 194 174 143 193 174 64 143 
143 64 122 113 114 150 113 80 106 
113 79 118 80 113 118 92 118 142 
126 105 117 96 105 126 103 91 129 
88 59 67 58 59 88 67 59 68 
168 156 167 86 38 45 127 149 142 
140 163 165 188 196 205 211 186 209 
205 227 236 212 205 236 209 213 217 
116 148 149 127 116 149 148 162 159 
159 153 152 148 159 149 149 159 152 
142 149 165 158 165 152 149 152 165 
158 99 140 158 140 165 211 183 186 
203 183 211 196 202 214 218 196 214 
205 196 218 211 209 225 203 211 210 
218 214 226 218 226 227 205 218 227 
217 212 236 209 217 225 220 211 225 
220 210 211 227 226 241 236 227 241 
217 236 243 225 217 243 232 225 239 
220 225 232 236 241 243 243 241 247 
225 243 239 239 243 247 6 13 9 
26 21 38 29 12 26 12 21 26 
238 197 221 197 200 221 238 192 197 
197 190 200 192 190 197 190 125 200 
138 190 192 29 138 192 138 86 190 
190 86 125 26 86 138 29 26 138 
26 38 86 0 11 16 248 242 245 
177 242 248 242 246 245 240 248 245 
249 240 245 224 240 249 178 224 249 
177 182 242 182 75 242 178 95 179 
115 171 147 115 111 171 171 151 172 
171 111 151 111 107 151 178 54 95 
54 78 95 71 54 178 147 124 115 
115 81 111 110 81 115 81 83 111 
83 107 111 11 0 4 3 61 54 
20 1 75 4 1 20 72 63 189 
82 98 130 130 98 158 191 109 176 
202 87 191 191 176 198 49 121 181 
72 189 121 153 130 152 152 130 158 
198 176 65 191 195 202 195 191 198 
195 198 223 181 121 204 121 189 204 
204 189 203 195 214 202 195 223 214 
198 65 199 65 207 199 181 204 215 
204 203 210 204 210 215 3 0 16 
0 1 4 1 0 3 245 246 249 
246 238 231 246 208 238 231 201 249 
242 208 246 201 178 249 242 75 208 
178 201 200 160 208 75 200 45 178 
160 29 208 3 54 71 45 71 178 
75 28 160 28 29 160 21 3 71 
21 71 38 75 1 28 28 12 29 
1 12 28 3 12 1 12 3 21 
238 201 231 221 201 238 208 192 238 
221 200 201 208 29 192 45 200 125 
125 86 45 38 71 45 132 182 177 
179 112 187 112 52 187 169 112 179 
150 112 169 179 146 169 179 95 146 
95 123 146 164 139 170 240 229 235 
229 230 235 101 94 174 133 101 174 
89 110 105 105 110 124 105 124 154 
80 92 84 84 92 123 84 102 80 
106 102 134 106 134 114 52 55 185 
128 136 135 133 174 135 135 136 172 
170 139 168 104 129 139 154 124 147 
139 156 168 170 168 147 154 147 168 
123 157 146 114 134 150 134 112 150 
216 132 222 222 132 177 206 229 185 
222 177 230 230 229 219 219 222 230 
22 39 36 22 36 55 55 36 47 
36 39 47 39 46 57 147 171 170 
164 170 171 155 164 171 155 119 164 
172 155 171 90 119 155 136 155 172 
136 90 155 133 135 172 133 172 151 
107 133 151 132 27 182 102 112 134 
112 61 52 78 112 102 78 61 112 
84 123 95 78 84 95 78 102 84 
81 89 104 89 81 110 164 104 139 
119 81 164 164 81 104 81 119 83 
83 101 107 83 119 90 107 101 133 
27 75 182 54 61 78 27 20 75 
61 16 52 17 20 27 17 4 20 
179 187 178 124 110 115 61 3 16 
104 89 103 90 136 128 108 90 128 
108 83 90 83 108 68 83 68 101 
68 94 101 43 27 132 52 22 55 
16 22 52 39 11 46 11 17 46 
46 17 43 17 27 43 22 11 39 
16 11 22 235 177 248 240 235 248 
177 235 230 187 229 240 224 187 240 
229 187 185 187 52 185 224 178 187 
120 130 153 120 82 130 121 69 72 
49 69 121 237 220 232 223 198 228 
228 198 199 199 207 244 207 181 244 
244 181 215 210 220 215 215 220 237 
214 223 234 223 228 234 226 214 234 
241 226 234 228 199 233 199 244 233 
244 215 237 237 232 239 241 234 251 
228 233 234 234 233 251 233 244 251 
247 241 251 250 247 251 244 250 251 
244 237 250 237 239 250 239 247 250 
34 49 207 65 34 207 73 87 85 
87 73 109 69 51 72 51 44 63 
32 69 49 32 51 69 32 44 51 
34 32 49 41 31 34 41 34 65 
41 65 176 42 41 176 42 176 109 
48 30 73 51 63 72 30 109 73 
30 42 109 33 32 34 31 33 34 
13 31 41 42 13 41 18 42 30 
19 32 33 19 23 32 19 14 23 
7 19 33 31 7 33 13 42 18 
18 9 13 19 7 14 14 7 8 
7 2 8 2 5 8 11 4 17 
2 7 31 5 2 6 13 2 31 
6 2 13 59 64 68 59 60 64 
216 222 219 206 216 219 206 173 216 
206 161 173 108 67 68 66 43 132 
146 157 169 229 206 219 39 57 47 
57 46 66 66 46 43 68 64 94 
88 67 128 67 108 128 88 128 175 
104 103 129 96 91 89 89 91 103 
96 89 105 117 105 154 80 118 92 
80 102 106 113 106 114 185 55 47 
47 57 93 57 66 93 47 93 161 
94 64 174 128 135 180 135 174 180 
139 129 156 117 154 168 117 168 167 
123 92 157 150 169 157 47 161 185 
93 66 173 66 132 173 161 93 173 
185 161 206 173 132 216 109 191 87 
49 181 207 246 231 249 
POINT_DATA 252
SCALARS k float
LOOKUP_TABLE default
0.280862 0.147679 0.660897 0.214216 0.34856 0.141423 0.158057 0.433541 0.0977512 
0.125219 0.0767589 0.304604 0.756339 0.58125 0.0959021 0.0797668 0.240526 0.206625 
0.145318 0.318241 -1.06096e-05 0.183786 0.156451 0.113447 0.0588653 0.0790129 0.785009 
-3.21865e-06 8.10623e-05 -4.89354e-05 0.197088 3.8147e-06 0.644149 -1.07288e-06 3.77893e-05 -0.0303046 
0.128335 0.0816455 0.207715 0.432304 -0.0408676 -2.94447e-05 0.422519 1.7643e-05 0.0973428 
-0.000212014 0.189519 0.187958 0.143841 -1.16825e-05 0.0675291 0.0517318 -0.0589838 -0.0435516 
-0.0286843 -8.46386e-05 -0.0370699 0.560942 -0.158656 -0.218922 -0.155786 -0.032188 -0.0323777 
0.198095 -0.238962 -5.48363e-06 0.0626688 -0.0801982 -0.254617 -0.0389338 0.0882083 -2.41995e-05 
0.695145 0.13173 0.0720694 -8.40425e-06 -0.211134 -0.0260811 -1.57631 0.157637 0.0411525 
-0.209073 0.150456 0.040642 -0.00163472 0.145207 0.281019 0.0538421 -0.147366 0.0092558 
-0.722651 0.136164 -0.00655794 0.24062 -0.0773084 -1.26215 -0.0341034 -0.429669 0.265823 
0.307763 0.280213 0.27667 0.0305741 -0.0649881 -0.219751 0.11014 0.00979841 0.354623 
-0.641484 0.280271 0.164337 0.615176 -1.78889 -0.138572 0.138201 0.476542 -0.328251 
-0.0900216 -0.395381 -0.182969 0.182266 -0.0470973 -0.11716 0.0327429 0.210791 0.177272 
-0.268615 -0.451909 -1.16644 -0.0833197 0.405849 0.194298 -0.000103354 0.477147 -0.00119209 
-0.48095 -0.461398 0.174655 0.557961 -0.294546 0.236879 -0.366282 -0.495276 -0.293765 
-0.202074 0.286668 0.0182457 0.193824 -0.200205 -0.495839 -0.069684 0.352192 0.161848 
0.44613 0.164946 -0.649582 -0.0915208 -0.0265662 0.398838 -0.0285864 -6.79493e-06 0.186427 
-0.167209 -0.0111928 -0.746247 0.0544626 -0.0150702 0.00393009 -0.00784484 0.0674297 -0.0017851 
0.255371 0.0368575 0.565935 -0.192122 -0.15818 -0.000155926 -0.000171244 -0.0439935 -1.58822 
-0.22378 -0.00634193 5.96046e-07 0.0819054 -0.184975 -8.34465e-07 -0.0276762 -0.0401036 -0.0351628 
0.0519372 0.152391 0.746075 -0.0375309 -0.153985 -0.168064 -0.102904 0.0773017 0.687822 
-0.138167 -8.22544e-06 0.16609 0.210846 0.180832 0.19926 0.11327 -0.108477 0.236292 
-2.38419e-07 -9.77516e-06 -0.0147609 0.110062 0.114568 -0.123946 -0.153825 0.188976 0.626923 
0.138338 -0.0119572 0.0586727 0.391483 0.0968225 0.191026 -0.000705957 0.622971 6.67572e-06 
0.090691 0.136705 0.067832 0.000640571 0.212002 0.346245 0.155526 0.0919085 -0.00104475 
0.651715 0.310647 0.0482609 0.62499 0.670428 0.114448 0.217695 0.197538 -0.0386273 
0.0692362 0.00177383 0.178247 0.174908 0.177242 0.602057 0.198465 0.243898 0.480817 

FIELD FieldData 7
h 1 252 float
-0.0934897 -1.18955 0.534495 1.85168 -0.671243 2.05586 1.43262 0.0220792 1.15292 
1.81515 2.42437 -0.0222394 -0.905457 0.10241 2.32668 2.45944 1.79108 -0.793835 
1.34023 21.0993 -0.956113 1.4952 1.8073 1.35889 2.38742 2.41818 -0.537181 
0.00890341 -0.927597 -0.924399 6.68075 0.0259862 0.0387878 0.0285987 0.0100187 2.11324 
1.59557 2.27331 1.19324 -0.125922 2.07518 0.0214664 0.0282402 0.00722414 1.83135 
1.37018 -0.895911 1.6912 2.73981 0.0254936 2.30474 3.79304 0.544333 2.05734 
0.72645 1.3867 1.94986 0.000413552 1.62078 0.949303 1.1145 0.752835 2.01205 
1.77731 1.51248 0.0113307 0.00620943 -0.386807 -0.813331 0.0279772 2.42033 1.34247 
2.40455 5.82156 2.41629 -0.0725412 1.08949 -0.14138 -1.52852 -1.75915 -0.5349 
-1.14737 -0.029937 -1.36275 -0.53115 2.00295 1.3776 1.61036 1.31274 -0.69097 
-5.68072 0.521179 -1.65506 0.533023 1.27668 -1.28975 -0.0722841 -1.30173 0.24394 
0.0668045 0.249954 -0.066749 -0.815853 0.174386 -1.86337 -0.0344053 -0.692939 1.3715 
-1.44279 0.0458481 -0.605884 3.96618 -0.838665 -0.439012 -0.340828 11.7991 -0.516328 
1.02145 -1.2267 -1.26392 0.00491843 0.0261723 1.04071 -0.689613 31.2802 1.33093 
-0.883287 -0.816457 -1.32689 3.62418 1.42182 26.4877 0.00773779 0.418625 -0.507734 
-0.57944 -3.37639 1.13728 -0.761315 0.368065 -0.260828 -2.03718 -7.30743 1.47072 
1.77616 2.87922 -0.47248 -0.467823 -0.289292 -2.49297 -1.02188 0.386131 -0.040562 
1.87604 2.45713 -1.32516 0.783718 -0.760768 0.528372 -0.28477 0.00731938 1.81706 
-1.68005 -1.52578 -0.554247 -1.37002 -0.117834 0.404331 0.497057 -1.23619 -1.09312 
-0.601397 -1.82953 -0.665818 1.31169 1.63213 0.0266149 -0.530737 0.585056 -1.75059 
-0.0160439 0.0421503 0.00667227 2.41871 1.89532 1.40587 2.02472 0.622715 1.91527 
3.13571 0.171797 0.0502229 -0.973081 1.04029 1.0941 1.25603 2.29472 -0.637677 
0.0274706 0.0404913 1.57377 1.688 0.618354 2.65822 4.04805 1.89843 1.75155 
0.0294844 -0.561302 1.96963 1.41775 2.35829 1.79194 1.84104 0.51105 0.0590972 
-0.781684 2.14037 1.75826 -0.156092 1.70123 -0.0508998 -1.04941 19.1433 1.40584 
2.42176 0.614406 2.12003 0.0223889 1.87796 -1.07688 -0.060489 1.24032 0.0328977 
6.98049 1.37471 2.32709 8.51726 -1.00376 2.01678 1.97583 0.526968 -1.1212 
2.45913 0.0314696 0.105358 -1.05495 1.15284 -1.04447 1.64738 19.7093 6.87313 

kmin 1 252 float
0.175251 -0.805011 0.638491 2.27615 -0.559503 2.82356 2.34837 0.0558461 2.31573 
2.64197 2.88945 0.270325 -0.515203 0.13709 2.81463 2.80573 2.256 -0.705401 
2.43489 38.8689 -0.856841 1.66503 2.1933 2.33631 2.74653 2.6673 -0.360013 
0.0134017 -0.810755 -0.777233 9.63085 0.0402869 0.0877405 0.0430295 0.0221447 2.16732 
1.81437 2.95506 1.26401 0.185265 2.18409 0.03714 0.0638306 0.0111166 2.64706 
1.4178 -0.747053 1.83439 2.94209 0.0386346 2.67873 4.52425 0.652012 2.43012 
0.91628 1.46306 2.54063 0.279864 2.22642 3.21071 2.77963 1.06142 2.05009 
2.63982 3.59759 0.0250359 0.0119938 2.37761 2.88185 0.0446058 2.88784 1.39255 
2.57076 8.2338 2.58284 -0.0197712 2.90343 0.0877133 1.13441 -1.2108 1.08466 
0.477408 0.548204 1.26586 1.34202 2.75758 1.57118 2.44634 3.03822 0.320304 
-3.5918 1.02886 1.06301 0.730322 3.70023 1.0934 0.215571 -0.224699 1.7825 
2.47834 0.435271 2.00426 1.21925 0.643242 -0.0885627 0.103634 1.84787 4.32112 
0.329992 0.072308 0.188143 8.12475 1.14213 1.1763 1.16594 19.7723 -0.313457 
1.83069 0.606422 0.342555 0.433337 0.0484474 2.9343 1.04065 62.8863 1.44096 
-0.397869 -0.10337 1.99327 8.3006 4.23208 58.1559 0.0115863 3.91871 0.599644 
2.41926 -2.78826 2.0492 -0.687591 1.64356 2.12155 -0.137132 -1.67824 3.40002 
2.31996 5.08034 0.975798 0.0225658 2.51116 -1.5387 1.97808 2.15212 1.1679 
3.1683 4.87101 0.760107 1.75764 1.14445 2.5234 -0.132426 0.011254 2.03884 
-0.275871 0.334751 1.28591 -0.339849 0.0394348 0.81368 0.924367 -0.217612 0.0764844 
0.581883 1.32766 -0.528459 4.10384 3.26409 0.0403267 -0.381479 0.893724 1.4304 
3.3176 0.0572273 0.010613 2.61555 2.2396 1.52424 2.09736 0.799087 2.48127 
3.43752 0.470185 0.104186 -0.959569 3.33083 3.13152 2.23973 2.98866 -0.431123 
0.0440052 0.055398 1.7653 1.87391 1.99574 2.9121 5.75985 2.4701 2.05356 
0.0431762 -0.366719 2.06231 2.48419 2.5194 2.25599 2.36299 1.84675 0.119582 
-0.676334 2.46313 2.8519 0.0808561 2.62905 0.338531 -0.959743 35.0838 1.47833 
2.86324 2.07535 3.05089 0.0446589 2.2846 -0.622632 0.312589 2.35418 0.0510228 
9.21593 2.09925 2.83048 14.3475 -0.780242 2.77802 2.41137 1.92923 -1.04584 
3.06455 0.0468992 0.573296 -0.8148 2.39342 -0.611421 1.84933 37.3592 11.236 

kmax 1 252 float
-0.36223 -1.57409 0.430499 1.4272 -0.782982 1.28817 0.516868 -0.0116878 -0.00989375 
0.988326 1.9593 -0.314804 -1.29571 0.067729 1.83874 2.11315 1.32617 -0.882269 
0.245574 3.32962 -1.05539 1.32536 1.42129 0.381468 2.02832 2.16905 -0.71435 
0.00440515 -1.04444 -1.07156 3.73065 0.0116855 -0.010165 0.0141678 -0.00210741 2.05917 
1.37677 1.59157 1.12247 -0.437109 1.96626 0.00579287 -0.00735027 0.00333167 1.01564 
1.32255 -1.04477 1.54801 2.53752 0.0123526 1.93074 3.06183 0.436655 1.68456 
0.53662 1.31034 1.35908 -0.279037 1.01515 -1.31211 -0.550631 0.444254 1.97401 
0.914798 -0.572628 -0.00237454 0.00042503 -3.15122 -4.50851 0.0113487 1.95281 1.2924 
2.23835 3.40932 2.24974 -0.125311 -0.724448 -0.370474 -4.19144 -2.3075 -2.15446 
-2.77215 -0.608078 -3.99135 -2.40432 1.24832 1.18403 0.77437 -0.412736 -1.70224 
-7.76964 0.0135008 -4.37312 0.335723 -1.14686 -3.67289 -0.360139 -2.37876 -1.29462 
-2.34473 0.0646371 -2.13776 -2.85096 -0.29447 -3.63817 -0.172444 -3.23375 -1.57811 
-3.21558 0.0193882 -1.39991 -0.19239 -2.81946 -2.05432 -1.8476 3.82603 -0.719198 
0.212214 -3.05983 -2.8704 -0.4235 0.00389709 -0.852876 -2.41988 -0.325898 1.2209 
-1.3687 -1.52954 -4.64705 -1.05223 -1.38845 -5.18055 0.00388927 -3.08146 -1.61511 
-3.57814 -3.96452 0.225369 -0.835039 -0.907433 -2.64321 -3.93723 -12.9366 -0.458589 
1.23236 0.678098 -1.92076 -0.958213 -3.08975 -3.44725 -4.02184 -1.37985 -1.24903 
0.583774 0.0432412 -3.41043 -0.190204 -2.66599 -1.46665 -0.437115 0.00338478 1.59527 
-3.08423 -3.38631 -2.3944 -2.40019 -0.275104 -0.00501904 0.0697471 -2.25477 -2.26273 
-1.78468 -4.98672 -0.803177 -1.48045 0.000170308 0.0129031 -0.679995 0.276387 -4.93158 
-3.34969 0.0270732 0.00273154 2.22187 1.55104 1.2875 1.95207 0.446343 1.34927 
2.8339 -0.126591 -0.00374006 -0.986592 -1.25025 -0.943324 0.272321 1.60079 -0.844231 
0.0109361 0.0255846 1.38224 1.50209 -0.759031 2.40435 2.33625 1.32677 1.44955 
0.0157926 -0.755885 1.87696 0.351301 2.19718 1.32789 1.31909 -0.824647 -0.00138806 
-0.887035 1.81761 0.664632 -0.39304 0.773404 -0.440331 -1.13909 3.20272 1.33336 
1.98028 -0.846536 1.18917 0.000118855 1.47132 -1.53114 -0.433567 0.126457 0.0147726 
4.74504 0.650173 1.82369 2.68698 -1.22728 1.25554 1.54028 -0.875299 -1.19657 
1.8537 0.01604 -0.362579 -1.2951 -0.087732 -1.47752 1.44543 2.05944 2.51028 

hks 16 252 double
0.27604065456 0.27679667753 0.27742906154 0.27794218016 0.27834331991 0.27864265212 0.27885317387 0.27899063329 0.27907345261 
0.2791226595 0.27916183278 0.27921706245 0.27931691837 0.27949241553 0.27977695855 0.28020624362 0.31065264849 0.30921128306 
0.30791289774 0.30673827398 0.30567124105 0.30469904213 0.30381259246 0.30300665914 0.30227999221 0.30163543096 0.30107999979 
0.30062499641 0.30028606341 0.3000832239 0.30004085473 0.30018756692 0.49790256203 0.4971661726 0.49644719393 0.49571153863 
0.49492498165 0.49405416426 0.4930675102 0.49193601469 0.49063387924 0.48913897869 0.48743316113 0.48550239427 0.48333678219 
0.4809304848 0.47828157605 0.47539187821 0.33248213577 0.3290439226 0.32562026726 0.3222136061 0.31882849514 0.31547218809 
0.31215510495 0.30889116444 0.3056979649 0.30259681078 0.29961259245 0.29677353669 0.29411085016 0.29165828107 0.28945162219 
0.28752817472 0.32355591541 0.32314894208 0.32270962118 0.32224425631 0.32176047248 0.32126720265 0.3207746973 0.32029456829 
0.31983987377 0.31942524505 0.3190670495 0.31878357692 0.31859523105 0.3185247028 0.31859709899 0.31883999873 0.46252652966 
0.46232715524 0.4619166449 0.46128661618 0.46043077685 0.45934488412 0.45802667387 0.45647577316 0.45469360799 0.45268331546 
0.45044966696 0.44799900608 0.4453392034 0.4424796296 0.43943114865 0.43620613419 0.42345511841 0.42417684483 0.42473930486 
0.42513512364 0.42535904433 0.42540770102 0.42527933999 0.42497351623 0.42449079266 0.42383246813 0.42300035676 0.42199663635 
0.42082377794 0.41948456235 0.41798218388 0.41632043642 0.47417466126 0.47403390622 0.47382997098 0.47353559902 0.47312643688 
0.47258125397 0.47188200154 0.47101373931 0.46996446704 0.46872490244 0.46728824673 0.46564997465 0.46380767826 0.46176098486 
0.45951155936 0.45706319256 0.43470805142 0.43642156933 0.43789689877 0.43911855608 0.44007286269 0.44074815185 0.44113494836 
0.44122611692 0.44101697602 0.44050537592 0.43969174229 0.4385790892 0.43717300889 0.43548164754 0.43351567897 0.43128828831 
0.3730013269 0.37383697555 0.37465580581 0.37545002648 0.37621184182 0.37693338737 0.37760667247 0.37822354399 0.37877568394 
0.37925465107 0.37965197259 0.37995928832 0.38016854545 0.38027223899 0.38026369042 0.38013735605 0.42953684889 0.42759878295 
0.42559550508 0.42352047145 0.42136821397 0.41913458102 0.41681691196 0.41441413856 0.41192681311 0.40935706873 0.40670852307 
0.40398614064 0.4011960719 0.39834548853 0.39544243418 0.39249570896 0.2927425015 0.29612073954 0.29943421359 0.3026746048 
0.30583529251 0.30891141762 0.31189993086 0.31479963757 0.31761124896 0.32033744688 0.32298296482 0.32555468374 0.32806173614 
0.33051560788 0.3329302234 0.3353219974 0.34639860762 0.34565023521 0.34510307265 0.34473278225 0.3445180638 0.34444107056 
0.34448767176 0.3446475807 0.34491437081 0.3452854007 0.34576166592 0.34634759015 0.34705076369 0.34788163332 0.34885314572 
0.34998034591 0.39484191146 0.39469364096 0.39477199487 0.39505244541 0.39550824376 0.39611114041 0.39683207023 0.39764177543 
0.39851134868 0.39941268774 0.40031886254 0.40120440338 0.40204552566 0.40282031071 0.4035088648 0.40409347819 0.37548359861 
0.37662504329 0.37767673422 0.37862939196 0.37947410996 0.38020238521 0.38080614493 0.38127778138 0.38161020717 0.38179694286 
0.38183224644 0.38171129074 0.38143039102 0.38098728055 0.38038142824 0.37961438919 0.36698255032 0.36696930905 0.36688800629 
0.36672385301 0.36646402115 0.36609783819 0.36561690431 0.36501513893 0.36428876685 0.36343625627 0.36245822262 0.36135731196 
0.3601380778 0.35880686416 0.35737170694 0.35584226405 0.46957264298 0.46177450404 0.45395544391 0.44616330944 0.43844216563 
0.43083188922 0.42336800608 0.41608175874 0.4090003782 0.40214752657 0.39554387167 0.38920775337 0.38315590213 0.37740417271 
0.37196825914 0.36686436024 0.40331277383 0.40253322035 0.40173104023 0.40089404802 0.40001708418 0.39910173348 0.3981557726 
0.39719241518 0.39622942893 0.39528819721 0.39439278878 0.39356908636 0.39284400908 0.3922448479 0.39179871875 0.39153212646 
0.37141927569 0.37238060455 0.37330899936 0.37419918436 0.37504602894 0.37584439372 0.37658901386 0.3772744334 0.37789499804 
0.37844490817 0.37891832793 0.37930954236 0.37961315174 0.37982429213 0.37993887193 0.37995381684 0.40303846475 0.40290656624 
0.40274840328 0.40256996797 0.40237468028 0.40216329626 0.4019339624 0.40168240899 0.40140226771 0.40108549272 0.40072286041 
0.4003045225 0.39982058774 0.39926171087 0.39861967175 0.3978879321 0.48747645761 0.47970663515 0.47215017243 0.46482481142 
0.45774416135 0.45091821819 0.44435407036 0.43805674717 0.43203015913 0.4262780755 0.42080508394 0.41561748069 0.41072404581 
0.40613666644 0.40187077995 0.39794561837 0.39354549147 0.39269104903 0.39180613796 0.39088968905 0.3899433425 0.38897145347 
0.3879810507 0.38698175722 0.38598567829 0.38500725796 0.38406310117 0.38317175613 0.38235344992 0.38162977173 0.38102330025 
0.38055717642 0.51185570303 0.51020843953 0.50859921874 0.50699806933 0.50537334737 0.50369311933 0.50192653789 0.50004513913 
0.49802400146 0.495842723 0.49348619131 0.49094513743 0.48821648033 0.48530347896 0.48221571522 0.47896893253 0.36099021895 
0.36087172152 0.36077495233 0.36069544244 0.36062834425 0.36056840953 0.36050997132 0.36044694329 0.36037285083 0.36028090686 
0.3601641427 0.36001560045 0.35982858888 0.35959700004 0.35931567972 0.35898084113 0.3797730725 0.37937286973 0.37892706262 