# vtk DataFile Version 5.1
vtk output
ASCII
DATASET POLYDATA
POINTS 252 float
0.621102 -0.07289 0.078319 0.582054 -0.079624 -0.010285 0.576342 0.04032 -0.009962 
0.578251 0.01199 0.100258 0.612068 0.102012 0.099223 0.49408 0.013842 -0.129431 
0.492783 -0.136473 -0.13464 0.54325 0.114285 -0.047266 0.575942 -0.14454 -0.009321 
0.506612 0.286013 -0.060577 0.557833 -0.191822 0.085893 0.520748 -0.188003 -0.040773 
0.444464 -0.097592 -0.148458 0.503164 0.205195 -0.069045 0.488037 0.33456 0.050567 
0.505768 -0.009923 -0.041625 0.425018 0.254991 -0.182508 0.385645 0.200529 -0.223536 
0.534226 0.244763 0.047776 0.467939 0.130152 -0.059015 0.582975 -0.068354 0.205729 
0.560432 0.152856 0.146576 0.464073 0.143379 0.079022 0.457652 0.330753 0.145712 
0.408751 0.048279 -0.215639 0.491621 -0.003062 0.099439 0.477452 0.17966 0.017508 
0.396833 -0.218623 -0.118917 0.536562 0.030379 0.184459 0.563955 -0.016589 0.142983 
0.554501 0.097213 0.204173 0.442039 -0.182476 -0.160104 0.445036 0.331498 -0.020271 
0.38483 0.099804 -0.188762 0.375234 0.159095 -0.166228 0.490187 -0.081037 0.280092 
0.399518 -0.029682 -0.105262 0.594781 -0.133408 0.163539 0.332184 -0.039926 -0.201383 
0.349894 0.132257 -0.163079 0.39441 -0.057573 -0.105978 0.33862 -0.109056 -0.216467 
0.437613 0.341182 0.107449 0.370064 0.290816 -0.004439 0.494145 -0.156472 0.131074 
0.3823 0.01315 -0.022842 0.500252 -0.032952 0.001413 0.352536 0.151209 -0.084498 
0.456092 -0.09151 0.097124 0.443853 0.052901 0.098357 0.41066 -0.049977 0.000236 
0.334252 0.254101 -0.210095 0.365714 0.104206 0.123772 0.373851 -0.039618 -0.047491 
0.316806 0.27069 -0.139399 0.470654 -0.150947 0.270236 0.402759 0.304527 0.064365 
0.437215 0.135455 0.203671 0.375094 0.214146 0.017256 0.318851 0.027099 -0.266467 
0.421422 -0.15718 0.20723 0.434481 0.212133 0.082856 0.416018 0.291055 0.176709 
0.347986 -0.033789 0.27451 0.189208 0.142361 -0.265318 0.367197 -0.157888 -0.03056 
0.537611 0.164154 0.105689 0.366662 0.102354 -0.033274 0.383793 -0.196822 -0.050949 
0.396541 0.202384 0.145812 0.337934 0.061976 -0.043427 0.308439 0.252774 -0.111191 
0.322346 0.366088 -0.035173 0.347487 -0.073595 0.234141 0.256929 0.283017 -0.124792 
0.173532 0.017259 -0.30837 0.307901 -0.17525 -0.222021 0.349037 0.378414 0.067434 
0.299296 -0.135831 0.000304 0.419121 -0.112405 0.178879 0.309919 0.466036 0.075453 
0.309374 -0.216118 -0.056446 0.46963 0.228334 0.152547 0.306322 0.314397 0.145871 
0.259707 0.020582 -0.030931 0.379432 0.015997 0.221245 0.207909 -0.047238 -0.275879 
0.255268 0.409106 -0.090182 0.166856 -0.226089 -0.197896 0.19306 0.243159 -0.204483 
0.241513 -0.186912 -0.019767 0.277444 0.139659 -0.066909 0.249537 0.044683 0.169482 
0.2598 0.270932 -0.062191 0.266261 0.20943 0.189387 0.119484 0.135353 -0.280822 
0.246571 0.096957 0.264137 0.429049 -0.038219 0.292548 0.214347 0.439045 0.062176 
0.290005 -0.544007 0.071264 0.209803 0.302663 -0.016437 0.255001 -0.490486 -0.017928 
0.251675 0.291789 0.049944 0.427898 0.065103 0.238271 0.292569 0.370145 0.175142 
0.223379 0.418256 -0.032961 0.275236 0.2002 0.098454 0.208946 0.339703 -0.172407 
0.356665 0.003867 0.182472 0.170907 0.382054 -0.047936 0.297866 -0.652172 0.012196 
0.33511 -0.146035 0.269465 0.20632 0.161459 0.162201 0.381269 -0.113129 0.32635 
0.18113 0.281954 0.165181 0.163409 0.180445 -0.028087 0.166164 -0.105639 -0.020662 
0.037599 0.349288 -0.074308 0.309186 -0.078877 0.307148 0.037513 0.328549 -0.16852 
-0.063601 -0.000579 -0.275146 0.091716 0.257397 -0.227052 0.267038 0.267777 0.09375 
0.236775 0.022337 0.255748 0.108919 -0.331056 -0.09219 0.25988 0.448254 0.199235 
0.170445 -0.345866 -0.040117 0.230558 -0.764309 0.023928 0.211901 -0.251517 -0.104147 
0.268231 -0.746887 0.094614 0.292349 -0.666874 0.114014 0.235208 -0.751868 0.133722 
0.032517 -0.043629 -0.276488 0.141489 0.34717 0.201195 0.1392 0.32228 -0.005051 
0.216934 -0.58747 -0.054139 0.244579 -0.545147 0.129942 0.176394 -0.372253 -0.009646 
0.20771 0.403775 0.099553 0.24286 0.131069 0.212232 0.126789 0.329741 0.126086 
-0.007327 0.258207 -0.231429 0.177028 -0.679015 0.057426 0.141042 0.254678 0.004317 
0.126806 -0.137255 -0.271305 0.192737 -0.775043 0.056664 0.200519 0.240586 0.200871 
0.21178 -0.443515 0.073353 0.197926 -0.653526 0.119747 0.15729 0.21385 0.143041 
0.142496 -0.241511 -0.024983 0.185765 0.461294 0.177777 0.069868 -0.417796 -0.057694 
0.138113 -0.406255 0.09508 0.167403 -0.610888 -0.015829 0.036039 -0.294217 -0.177195 
-0.004678 0.113622 -0.271036 0.18233 0.450004 0.114916 0.132669 -0.312316 0.040131 
0.145159 -0.513924 0.10757 0.164279 0.075789 -0.05621 0.12387 -0.453205 -0.054664 
-0.025676 -0.342039 -0.103132 0.035198 -0.457013 -0.031676 0.022006 0.326756 0.126707 
0.021112 0.404025 0.143625 0.124944 -0.059629 -0.040495 0.0991 -0.560482 0.039511 
0.083391 -0.154193 0.000985 0.037309 0.196186 -0.006938 -0.120173 0.288064 -0.168109 
0.061776 -0.273962 0.096812 -0.134417 0.06753 -0.258413 -0.067788 -0.158682 0.119828 
0.02363 0.359765 0.188961 0.005214 0.258237 0.003149 -0.015638 -0.287467 -0.176726 
-0.100608 0.034037 0.028245 -0.055534 0.111494 0.003695 -0.100668 0.203912 0.056303 
0.082517 -0.411857 0.105581 -0.136953 0.266442 0.034978 0.010937 -0.463246 0.036137 
-0.12119 -0.212652 -0.162449 -0.137765 -0.109245 -0.250776 -0.01593 -0.309485 0.130871 
-0.318914 0.197054 -0.178593 -0.090954 0.328176 -0.09595 -0.179376 -0.361171 -0.024601 
-0.332791 -0.125892 -0.209337 -0.071328 -0.397349 0.077147 -0.157032 -0.299371 -0.080539 
-0.264983 -0.034486 -0.249816 -0.192706 0.194318 -0.2184 -0.175243 0.132286 0.075889 
-0.214055 -0.151997 -0.212143 -0.102609 -0.278761 0.148892 -0.231036 -0.311799 -0.090906 
-0.24633 -0.220559 -0.125534 -0.204814 0.016147 0.102284 -0.213578 0.279545 -0.010779 
-0.285334 0.254738 -0.06647 -0.241303 -0.271417 0.110697 -0.236244 -0.318277 0.032167 
-0.343675 -0.244585 -0.088355 -0.353936 -0.222577 -0.12894 -0.289227 0.139501 0.115625 
-0.312698 0.06664 -0.240601 -0.213738 -0.161514 0.153269 -0.322767 -0.231928 -0.031701 
-0.31507 0.007055 0.102589 -0.484627 -0.036272 -0.205605 -0.42944 -0.107441 -0.208766 
-0.320688 0.230831 0.023516 -0.389783 0.164752 0.070575 -0.535885 0.14803 -0.177956 
-0.342171 -0.215619 0.077745 -0.409222 0.193246 0.052736 -0.514542 0.106984 -0.20473 
-0.342439 -0.244135 0.042536 -0.553132 0.195414 -0.067258 -0.469251 0.190638 -0.100759 
-0.566834 -0.153348 -0.123074 -0.501201 -0.206519 -0.109003 -0.46774 -0.219549 0.074922 
-0.472899 -0.071453 0.154223 -0.340564 -0.142241 0.086277 -0.506597 0.207243 0.055331 
-0.520358 -0.239103 -0.021375 -0.478322 0.009109 0.175672 -0.473501 0.09768 0.144706 
-0.647865 0.129458 -0.124411 -0.543 0.198806 0.128164 -0.615898 -0.031504 0.25763 
-0.727607 -0.194417 0.018117 -0.671954 -0.216757 0.133433 -0.635425 0.152024 0.239719 
-0.675059 -0.133351 -0.063814 -0.646248 -0.167058 0.197178 -0.720998 0.255608 0.13947 
-0.676075 -0.023263 -0.096823 -0.714187 -0.140295 0.092023 -0.793077 -0.078621 -0.019864 
-0.659822 0.001534 0.275032 -0.710851 0.21062 0.249538 -0.689078 0.116964 0.301609 
-0.81272 0.217507 0.040701 -0.720266 0.153977 0.274927 -0.862447 0.124472 0.010688 
-0.849998 0.106796 0.033918 -0.809144 0.26437 0.203488 -0.880412 0.191481 0.067907 

POLYGONS 501 1500
OFFSETS vtktypeint64
0 3 6 9 12 15 18 21 24 
27 30 33 36 39 42 45 48 51 
54 57 60 63 66 69 72 75 78 
81 84 87 90 93 96 99 102 105 
108 111 114 117 120 123 126 129 132 
135 138 141 144 147 150 153 156 159 
162 165 168 171 174 177 180 183 186 
189 192 195 198 201 204 207 210 213 
216 219 222 225 228 231 234 237 240 
243 246 249 252 255 258 261 264 267 
270 273 276 279 282 285 288 291 294 
297 300 303 306 309 312 315 318 321 
324 327 330 333 336 339 342 345 348 
351 354 357 360 363 366 369 372 375 
378 381 384 387 390 393 396 399 402 
405 408 411 414 417 420 423 426 429 
432 435 438 441 444 447 450 453 456 
459 462 465 468 471 474 477 480 483 
486 489 492 495 498 501 504 507 510 
513 516 519 522 525 528 531 534 537 
540 543 546 549 552 555 558 561 564 
567 570 573 576 579 582 585 588 591 
594 597 600 603 606 609 612 615 618 
621 624 627 630 633 636 639 642 645 
648 651 654 657 660 663 666 669 672 
675 678 681 684 687 690 693 696 699 
702 705 708 711 714 717 720 723 726 
729 732 735 738 741 744 747 750 753 
756 759 762 765 768 771 774 777 780 
783 786 789 792 795 798 801 804 807 
810 813 816 819 822 825 828 831 834 
837 840 843 846 849 852 855 858 861 
864 867 870 873 876 879 882 885 888 
891 894 897 900 903 906 909 912 915 
918 921 924 927 930 933 936 939 942 
945 948 951 954 957 960 963 966 969 
972 975 978 981 984 987 990 993 996 
999 1002 1005 1008 1011 1014 1017 1020 1023 
1026 1029 1032 1035 1038 1041 1044 1047 1050 
1053 1056 1059 1062 1065 1068 1071 1074 1077 
1080 1083 1086 1089 1092 1095 1098 1101 1104 
1107 1110 1113 1116 1119 1122 1125 1128 1131 
1134 1137 1140 1143 1146 1149 1152 1155 1158 
1161 1164 1167 1170 1173 1176 1179 1182 1185 
1188 1191 1194 1197 1200 1203 1206 1209 1212 
1215 1218 1221 1224 1227 1230 1233 1236 1239 
1242 1245 1248 1251 1254 1257 1260 1263 1266 
1269 1272 1275 1278 1281 1284 1287 1290 1293 
1296 1299 1302 1305 1308 1311 1314 1317 1320 
1323 1326 1329 1332 1335 1338 1341 1344 1347 
1350 1353 1356 1359 1362 1365 1368 1371 1374 
1377 1380 1383 1386 1389 1392 1395 1398 1401 
1404 1407 1410 1413 1416 1419 1422 1425 1428 
1431 1434 1437 1440 1443 1446 1449 1452 1455 
1458 1461 1464 1467 1470 1473 1476 1479 1482 
1485 1488 1491 1494 1497 1500 
CONNECTIVITY vtktypeint64
36 15 25 28 103 85 85 103 123 
3 28 25 25 28 108 29 73 63 
108 28 85 97 29 63 108 85 123 
20 0 29 37 0 20 79 111 73 
73 111 118 63 73 118 10 37 55 
44 10 60 60 10 55 60 55 111 
79 60 111 30 21 57 103 30 57 
103 57 96 30 4 21 4 30 3 
3 30 28 30 103 28 123 103 96 
20 29 97 37 20 35 35 20 97 
113 35 97 97 63 118 113 97 118 
37 35 55 55 35 113 111 55 113 
111 113 118 212 223 222 212 205 223 
189 205 212 184 195 189 222 237 240 
240 211 222 211 212 222 192 189 212 
192 184 189 240 237 242 192 212 211 
211 207 192 172 192 207 240 242 248 
218 240 231 218 211 240 207 211 218 
231 240 248 215 218 231 226 210 229 
24 38 59 24 5 38 226 229 225 
229 210 230 166 178 177 7 24 33 
210 214 230 17 34 39 236 230 232 
214 232 230 214 217 232 206 213 214 
232 239 244 232 217 227 214 213 217 
181 200 213 54 51 89 247 250 251 
244 239 250 200 187 201 181 187 200 
117 187 181 117 119 187 232 227 239 
87 107 119 107 74 89 243 245 247 
238 233 243 17 13 34 39 34 47 
39 47 67 160 115 169 160 169 178 
178 179 194 177 178 194 229 230 236 
229 236 245 67 33 39 84 91 160 
166 160 178 177 194 199 199 194 206 
199 206 210 233 229 245 233 245 243 
7 5 24 84 160 166 225 229 233 
5 15 36 46 12 40 182 190 188 
152 161 163 190 203 188 163 182 188 
162 152 163 162 124 152 219 216 224 
203 202 219 188 219 209 188 203 219 
235 238 241 235 224 238 224 225 238 
224 226 225 224 216 226 41 31 76 
38 41 86 241 243 242 24 59 33 
39 59 64 39 33 59 89 95 121 
64 95 89 51 64 89 51 17 64 
163 188 191 245 236 244 194 181 206 
179 181 194 169 175 179 178 169 179 
169 115 143 47 71 91 13 17 16 
244 250 247 244 247 245 236 232 244 
206 181 213 175 181 179 169 143 175 
143 134 175 71 54 74 175 117 181 
175 134 117 134 109 117 107 72 74 
109 119 117 109 105 119 105 87 119 
127 145 142 154 127 142 154 135 127 
135 110 127 161 135 154 101 110 135 
210 206 214 16 17 51 54 89 74 
77 104 102 83 56 122 42 56 83 
180 153 185 109 100 138 58 43 71 
53 70 84 36 25 45 46 40 53 
36 45 53 40 36 53 50 46 53 
78 53 84 1 6 12 1 12 46 
50 53 65 65 53 78 6 8 11 
68 44 65 153 171 185 99 147 136 
147 153 136 148 136 159 136 153 159 
99 136 130 131 130 136 131 136 148 
130 131 129 77 72 80 80 72 87 
80 87 105 157 138 165 165 138 164 
100 102 138 98 109 138 138 140 164 
43 32 54 72 77 102 13 9 18 
56 43 58 42 43 56 42 32 43 
14 32 42 14 9 32 174 165 164 
164 133 174 138 104 140 102 104 138 
151 165 174 151 157 165 157 98 138 
80 98 157 80 157 151 80 105 98 
68 10 44 27 10 68 11 10 27 
11 8 10 1 0 8 44 48 65 
48 50 65 6 1 8 66 7 19 
66 19 22 13 18 26 163 167 182 
154 167 163 161 154 163 161 101 135 
126 161 152 126 137 161 137 101 161 
124 126 152 158 137 126 203 190 202 
128 150 126 124 128 126 208 216 202 
219 202 216 27 81 128 88 27 128 
76 27 88 76 31 27 208 226 216 
41 6 31 6 41 12 225 233 238 
40 41 38 36 40 38 12 41 40 
241 238 243 38 5 36 184 144 183 
144 176 183 234 241 242 81 90 128 
150 168 171 126 150 158 199 210 208 
84 166 116 116 166 168 168 166 177 
173 168 177 173 177 199 208 173 199 
226 208 210 78 116 90 78 84 116 
150 90 116 150 116 168 171 168 173 
6 11 31 31 11 27 27 68 81 
81 68 78 68 65 78 81 78 90 
128 90 150 158 150 171 185 173 196 
196 173 208 202 196 208 171 173 185 
190 196 202 153 158 171 180 185 190 
190 185 196 147 137 158 153 147 158 
195 184 183 144 184 132 132 184 192 
192 120 132 75 86 132 120 192 172 
75 132 120 242 249 248 156 120 172 
95 120 156 186 207 218 193 207 186 
172 207 193 141 172 193 156 172 141 
251 248 249 246 248 251 246 231 248 
220 231 246 215 231 220 221 215 220 
186 215 221 186 218 215 242 237 234 
222 234 237 234 222 223 64 17 39 
227 220 239 221 227 217 217 213 221 
201 221 213 250 246 251 250 239 246 
200 201 213 201 170 186 187 170 201 
187 119 170 119 121 141 119 107 121 
107 89 121 191 188 197 191 162 163 
176 162 191 155 162 176 155 124 162 
128 124 155 188 209 204 198 191 197 
183 191 198 183 176 191 155 88 128 
234 235 241 228 235 234 228 224 235 
228 219 224 228 209 219 204 209 228 
88 155 144 144 76 88 197 188 204 
86 76 144 86 41 76 86 144 132 
59 86 75 154 142 167 127 131 145 
74 72 93 71 93 91 70 47 91 
182 180 190 147 101 137 180 159 153 
159 180 167 167 180 182 99 110 101 
99 101 147 110 99 130 142 148 159 
167 142 159 127 110 129 110 130 129 
127 129 131 142 145 148 145 131 148 
87 72 107 98 105 109 100 109 134 
32 9 16 32 16 51 32 51 54 
43 54 71 71 74 93 93 72 102 
93 102 100 93 100 115 115 100 143 
143 100 134 9 13 16 47 58 71 
91 93 115 160 91 115 13 26 34 
34 26 47 47 26 58 70 67 47 
19 7 33 19 33 67 45 67 70 
70 91 84 7 2 5 2 15 5 
53 45 70 38 86 59 242 243 247 
95 64 75 64 59 75 121 95 156 
249 247 251 227 221 220 201 186 221 
170 193 186 170 141 193 141 121 156 
239 220 246 119 141 170 205 197 204 
198 197 205 228 234 223 205 228 223 
205 204 228 189 198 205 183 198 189 
195 183 189 176 144 155 242 247 249 
95 75 120 77 80 125 79 44 60 
8 37 10 0 37 8 79 48 44 
48 79 73 73 29 48 29 50 48 
15 3 25 0 46 29 49 92 52 
45 49 67 49 108 92 25 49 45 
49 25 108 2 4 3 139 52 92 
49 22 67 66 22 52 4 7 66 
4 2 7 112 146 149 26 61 58 
26 82 61 18 82 26 106 112 149 
69 106 61 56 61 106 61 56 58 
140 133 164 122 149 114 83 122 114 
56 106 122 1 46 0 2 3 15 
122 106 149 92 108 123 104 133 140 
146 83 114 146 114 149 125 80 151 
133 125 151 133 151 174 104 77 125 
133 104 125 18 14 62 62 14 23 
14 42 23 23 42 83 23 83 62 
62 83 146 14 18 9 18 62 82 
82 62 94 94 62 146 61 82 69 
106 69 112 69 82 94 112 69 94 
112 94 146 21 4 66 21 66 57 
57 66 139 139 66 52 57 139 96 
92 123 139 96 139 123 22 19 67 
29 46 50 22 49 52 
POINT_DATA 252
SCALARS k float
LOOKUP_TABLE default
0.723219 0.288839 0.270743 0.554778 0.832777 0.299375 0.285411 0.337559 0.209221 
0.428493 0.204083 0.0882974 0.0894711 0.43662 0.204114 0.08538 0.37725 0.598835 
0.753487 0.0111063 0.556825 0.527994 -1.03934 1.24185 0.259589 -0.633514 0.23599 
0.0145817 0.33031 0.229082 0.7749 0.32959 0.165556 -0.205103 -0.160964 0.174024 
-1.13273 0.418345 -0.441758 -1.56449 -1.00289 -0.175271 -0.0325309 -0.0593558 -0.527683 
-1.03113 0.0484259 -3.44248 -1.65083 -1.29999 -0.175444 0.200859 -0.155564 -2.79705 
-0.602564 0.37937 -1.84151 0.061132 0.0710006 0.172805 -0.135936 -1.70463 -0.0437785 
0.81413 -0.345315 -0.840334 0.192523 -1.27044 -0.456195 0.0148097 -0.381733 -1.5664 
0.258566 0.0689971 -1.25034 0.259891 0.1418 0.786921 0.320986 -0.0265355 0.837334 
0.0418173 0.746372 0.0513728 -0.00991076 0.075915 -0.181106 0.362223 -0.0728912 -0.39098 
-0.173318 -0.197736 1.01215 -1.70594 0.0878201 0.0456017 1.07518 0.47099 -0.618075 
0.362092 -1.52404 0.358876 0.45665 0.090209 -0.0128478 -0.0716693 0.199233 0.296933 
-0.00235075 -1.24051 0.56884 1.25233 1.55143 0.805206 1.39204 -0.063965 -0.134345 
-0.173741 1.98863 -0.0119058 -0.00715041 -0.0306549 0.185243 2.0461 -0.141574 1.14252 
-0.803002 0.897977 -1.12252 0.497065 0.474654 1.55493 -0.0269599 0.427104 0.170277 
0.416089 0.366785 -0.657772 -1.96164 1.46299 0.348451 0.129758 -0.409242 0.157294 
0.0853618 1.68573 0.829127 -0.0251273 -0.0431056 1.77562 -0.559258 0.38206 -0.21719 
-0.184397 -0.104837 0.128718 -0.00167459 -0.524608 -0.12717 -0.152157 0.011849 -0.213491 
-0.159765 -0.253826 2.23452 1.4914 0.127053 -0.19018 -0.183126 -0.0811728 0.0489605 
0.034276 -0.00984842 0.0386707 1.52057 -0.312862 0.164769 0.0592012 0.080201 0.116964 
-0.229779 0.0968059 -0.390878 -0.0712259 0.00850701 -0.0495063 -0.101091 0.105227 -0.142507 
-0.0363448 0.034133 -0.105107 0.0108105 0.00386524 -0.108494 0.0248475 0.179559 0.274449 
0.0284407 -0.16831 0.0628724 -0.0335958 0.131393 0.0202101 -0.387167 -0.132246 0.358413 
-0.00482905 0.211486 0.419064 -0.343181 0.0490148 0.12736 -0.0398427 -0.327934 0.165091 
-0.371941 -0.41816 0.184039 -0.476757 -0.0501436 -0.1238 0.0559201 0.0880724 -0.248889 
-0.0560444 -0.0912946 -0.0389347 0.0329125 -0.0774891 -0.0351123 -0.0206457 -0.0834002 0.136006 
0.538179 0.662387 0.00136578 -0.00710845 0.363903 0.0634333 -0.00225353 -0.00682247 0.367588 
0.126355 0.214613 0.865192 0.180142 -0.0329426 0.365418 -0.0245819 1.53473 1.04503 

FIELD FieldData 7
h 1 252 float
4.38803 4.64681 3.95041 1.94148 5.25554 2.97934 2.92457 3.76715 3.7025 
4.05434 1.10228 3.14477 1.46194 4.00881 9.23626 2.21298 4.13791 2.34815 
7.97339 1.44339 1.62272 -0.408035 -3.67256 1.22246 3.00318 -1.42891 0.27941 
1.95759 -0.516242 0.833716 11.4146 2.65114 2.26963 1.78128 0.882916 10.8174 
0.210055 2.10627 2.3507 1.98187 1.40538 2.12868 0.963542 -1.04884 -3.66619 
-3.31532 1.07864 -3.6942 -6.58555 -5.24648 -4.09374 2.74563 -3.48002 -1.90806 
1.27255 -0.842458 -0.995079 -0.182555 -5.87774 2.68036 0.372095 -5.01456 12.5157 
1.72323 2.41643 -3.25434 1.9647 -2.17568 -1.09519 -0.991739 -2.28339 -2.34211 
2.66437 -0.727402 2.07045 2.39612 2.24814 0.635564 -1.05196 -1.39162 1.11669 
-0.535635 0.362228 -0.072076 -1.37525 0.109107 2.03722 2.76444 1.39672 2.58023 
-1.04908 -1.69279 -0.822274 -1.81794 -0.421828 2.43194 0.408621 0.322663 1.78886 
3.17785 -2.68019 0.545339 -3.8742 10.5685 -1.82726 1.88204 -0.795575 2.3039 
-0.410911 3.06335 6.21105 -0.265876 2.6968 10.9015 -0.141798 -1.51169 -0.947102 
3.83224 1.77229 2.07582 1.86902 2.34191 -0.289104 0.60385 0.538457 9.72718 
0.201116 0.145992 1.38907 2.87535 1.33958 2.41851 1.59009 0.101036 0.78712 
0.373242 0.544859 -2.14365 -11.9134 -0.494496 -0.352249 2.20198 2.35899 -1.14971 
1.36846 2.77535 7.32003 -0.193956 5.93912 1.50997 -0.630339 12.2627 0.0877642 
0.220949 -0.0839393 1.20109 2.1515 1.51453 -0.0931291 1.68872 -1.47621 0.210402 
0.370066 0.286863 0.0401943 1.39514 -0.91142 5.54212 -0.370196 -1.20233 1.84307 
0.103572 1.99495 0.0523966 6.76531 -0.263541 0.824132 -0.235986 -0.625312 -0.333512 
0.97977 1.05064 6.24665 0.543435 1.12789 0.579858 1.92079 2.37855 1.14654 
1.07184 4.57691 0.388957 1.62304 2.08449 -0.221032 0.937841 1.01127 0.595431 
0.522809 0.161085 4.82879 1.4546 2.17637 6.42012 1.39106 1.0852 0.202878 
1.97727 0.600904 1.41416 0.18717 1.99224 1.60913 2.82911 0.00198856 1.66314 
1.1272 3.08877 2.36473 2.49743 2.29118 1.79995 2.27754 2.33667 1.97673 
0.85551 0.237066 3.2991 3.31764 0.144274 0.0534598 2.54228 1.42151 0.697092 
3.55776 6.17951 0.15637 2.15271 2.63855 3.46049 2.23839 4.6809 2.92597 
1.14634 1.50949 0.0855693 2.85427 0.805629 2.15151 3.11955 8.03048 1.81773 

kmin 1 252 float
9.83611 7.17643 5.25727 5.07041 6.25526 3.92967 3.66417 5.43017 5.1321 
5.21486 2.90923 4.80334 1.97175 6.85363 10.416 3.79656 5.07928 3.33126 
15.7034 2.35956 3.66612 -0.0961455 -1.62574 3.01212 3.40326 -0.217224 1.91817 
2.88165 -0.050332 1.13295 17.2311 3.30406 3.81872 2.32127 1.57555 15.8859 
1.71874 4.63232 2.71853 2.64754 1.82613 2.66345 2.77756 1.96139 -1.397 
-0.359931 1.82671 -1.98032 -3.82147 -2.07808 -1.98486 4.01518 1.56325 -1.34116 
1.90301 -0.513531 -0.294065 0.523668 -2.36916 3.34756 1.18176 -2.61308 17.1997 
3.09901 3.2864 -0.863781 3.83257 -0.584136 -0.692016 -0.103133 -1.78973 -0.433311 
3.66 2.31106 2.5008 3.41795 2.75349 2.28143 -0.68481 1.13976 2.34063 
0.293896 2.16908 0.916522 -1.14704 1.26188 2.38669 4.32294 1.66446 3.73303 
-0.48269 -1.32519 0.686194 -0.344136 0.196431 3.6731 2.60593 1.48867 3.39247 
6.83264 -1.04176 0.934486 0.0311302 19.3991 -0.684172 3.44751 0.807021 2.98091 
0.44091 8.12898 12.9549 1.29705 5.31135 17.1718 1.03379 -0.973144 -0.432362 
7.89575 5.97542 3.2512 2.68085 3.38055 1.13342 1.52643 1.42939 16.0033 
1.65081 0.949528 1.94073 7.2726 2.78782 5.11609 2.03542 1.62969 2.25814 
1.46518 1.51951 1.40174 -1.58415 0.423914 0.270495 3.56834 6.32503 -0.405812 
1.51718 7.00186 15.7606 0.64934 12.6802 4.65267 -0.479327 22.042 1.0296 
0.485409 0.957685 1.53009 3.37379 2.2601 0.0912418 4.07965 -1.23518 1.03892 
1.03328 1.04225 0.68389 1.99776 -0.620132 12.8715 -0.195206 -0.674936 3.1018 
0.363612 3.23226 0.38506 10.1115 0.336091 1.1052 -0.0547178 -0.534642 -0.150861 
2.19448 2.22505 13.4403 0.917119 1.39145 1.134 3.49216 4.47284 2.33997 
1.53889 9.6683 0.815066 2.27426 3.52862 -0.0555363 1.32388 1.96179 0.885068 
0.852438 0.187876 10.1495 3.02073 4.67577 13.5887 2.86842 1.78126 0.304562 
3.15887 1.02601 3.21349 0.458847 3.06047 2.41315 6.34236 0.34864 3.2525 
2.59464 7.08272 3.909 5.42509 5.19031 4.41012 3.42341 3.95268 4.10953 
1.92224 0.87211 7.58034 6.18236 0.449708 0.620306 4.8816 3.54414 2.17273 
6.56497 12.2812 1.48362 3.29179 5.1631 7.40429 3.70335 9.41378 4.64202 
1.40887 4.30062 0.973229 5.81007 1.96372 3.80453 5.26959 14.1777 2.74218 

kmax 1 252 float
-1.06004 2.11719 2.64355 -1.18745 4.25582 2.02901 2.18498 2.10413 2.27291 
2.89383 -0.704659 1.4862 0.952118 1.16399 8.05655 0.629408 3.19655 1.36504 
0.243424 0.527225 -0.420677 -0.719925 -5.71938 -0.567208 2.6031 -2.64059 -1.35935 
1.03353 -0.982151 0.534484 5.59817 1.99821 0.720542 1.2413 0.190283 5.74877 
-1.29863 -0.419792 1.98287 1.31621 0.984625 1.5939 -0.850476 -4.05907 -5.93537 
-6.27071 0.330566 -5.40808 -9.34962 -8.41488 -6.20261 1.47608 -8.52328 -2.47495 
0.642093 -1.17139 -1.69609 -0.888778 -9.38632 2.01316 -0.437567 -7.41605 7.83166 
0.347455 1.54646 -5.6449 0.0968183 -3.76723 -1.49836 -1.88035 -2.77705 -4.25091 
1.66874 -3.76586 1.64011 1.37429 1.74279 -1.0103 -1.41912 -3.92301 -0.107253 
-1.36517 -1.44462 -1.06067 -1.60347 -1.04366 1.68775 1.20595 1.12897 1.42742 
-1.61547 -2.06038 -2.33074 -3.29175 -1.04009 1.19078 -1.78869 -0.843344 0.185253 
-0.476949 -4.31862 0.156192 -7.77953 1.73801 -2.97036 0.316572 -2.39817 1.62688 
-1.26273 -2.00229 -0.532753 -1.8288 0.0822434 4.63129 -1.31738 -2.05024 -1.46184 
-0.231269 -2.43083 0.900442 1.05719 1.30327 -1.71163 -0.318727 -0.352475 3.45105 
-1.24858 -0.657545 0.837402 -1.52191 -0.10865 -0.279075 1.14476 -1.42762 -0.683903 
-0.718694 -0.429795 -5.68904 -22.2427 -1.41291 -0.974994 0.835623 -1.60704 -1.89362 
1.21974 -1.45116 -1.12054 -1.03725 -0.801966 -1.63274 -0.781352 2.48343 -0.854076 
-0.0435108 -1.12556 0.872097 0.929206 0.768966 -0.2775 -0.70221 -1.71723 -0.618112 
-0.293152 -0.468528 -0.603502 0.792522 -1.20271 -1.7873 -0.545187 -1.72972 0.584334 
-0.156467 0.757636 -0.280267 3.4191 -0.863173 0.543062 -0.417255 -0.715981 -0.516164 
-0.234936 -0.123774 -0.94702 0.169751 0.864334 0.0257125 0.349419 0.284264 -0.0468843 
0.604781 -0.514484 -0.0371516 0.971826 0.640355 -0.386529 0.551804 0.0607413 0.305793 
0.19318 0.134294 -0.491865 -0.111527 -0.323027 -0.748435 -0.0862971 0.389131 0.101193 
0.795662 0.175797 -0.385165 -0.0845074 0.923998 0.805111 -0.684133 -0.344662 0.0737821 
-0.340246 -0.905179 0.820467 -0.430235 -0.607952 -0.81023 1.13166 0.720661 -0.156075 
-0.211216 -0.397978 -0.98214 0.452915 -0.16116 -0.513386 0.202953 -0.701119 -0.778548 
0.550553 0.0777977 -1.17088 1.01363 0.113997 -0.483305 0.773433 -0.0519826 1.20992 
0.88382 -1.28165 -0.80209 -0.101523 -0.35246 0.498487 0.969504 1.88324 0.893274 

hks 16 252 double
0.35790965839 0.36173203827 0.36564267502 0.36963822122 0.37371462334 0.37786713152 0.38209031897 0.38637811027 0.39072381828 
0.39512018868 0.3995594512 0.40403337678 0.40853333915 0.41305038011 0.41757527696 0.42209861119 0.32799334102 0.32693232451 
0.32597349832 0.32513021487 0.32441489223 0.32383885121 0.32341216929 0.32314355393 0.32304023752 0.32310789568 0.32335059008 
0.32377073648 0.32436909793 0.32514480288 0.32609538698 0.32721685728 0.3621728528 0.36282278321 0.36357691443 0.36444605802 
0.36544027933 0.3665687516 0.36783962407 0.36925990658 0.3708353729 0.37257048446 0.37446833575 0.37653062206 0.37875762968 
0.38114824844 0.38370000547 0.38640911923 0.38155707989 0.38551219441 0.38960180258 0.39382612829 0.39818431435 0.40267439931 
0.40729331224 0.41203688555 0.41689988527 0.4218760582 0.42695819455 0.43213820465 0.43740720786 0.44275563167 0.44817331869 
0.4536496394 0.38795185898 0.39264684465 0.39748125753 0.40245060733 0.40754954973 0.41277190847 0.41811070945 0.4235582261 
0.42910603545 0.43474508374 0.44046576029 0.44625797818 0.45211126005 0.45801482736 0.46395769132 0.46992874376 0.28622869703 
0.28461157161 0.28303397804 0.28150912353 0.28005017921 0.27867014985 0.27738174269 0.27619723729 0.27512835822 0.27418615284 
0.27338087599 0.27272188377 0.27221753833 0.27187512537 0.27170078612 0.27169946499 0.29324887025 0.29144826437 0.28965975473 
0.2878989338 0.28618121189 0.28452163714 0.28293472049 0.28143426862 0.28003322749 0.278743539 0.27757601303 0.27654021681 
0.2756443833 0.27489533979 0.27429845761 0.27385762343 0.31155177115 0.31234923781 0.31321120968 0.31414576269 0.31516069 
0.31626339116 0.3174607665 0.3187591189 0.32016406491 0.32168045669 0.32331231648 0.32506278438 0.32693408039 0.32892748115 
0.33104331131 0.3332809495 0.32596030175 0.32774479652 0.32960564444 0.33154694428 0.33357220301 0.33568425337 0.33788518135 
0.34017626531 0.34255792773 0.34502970061 0.34759020507 0.3502371452 0.35296731612 0.3557766258 0.35866012974 0.36161207762 
0.39281195868 0.39417402388 0.3956072454 0.39711898868 0.39871617547 0.40040518101 0.40219173985 0.40408086157 0.40607675782 
0.4081827816 0.41040137925 0.4127340558 0.41518135336 0.41774284267 0.42041712724 0.4232018595 0.30427964535 0.30740546323 
0.3106451912 0.31399608671 0.317454386 0.3210153224 0.32467316147 0.32842125207 0.33225209207 0.33615740681 0.34012823836 
0.34415504324 0.34822779608 0.35233609677 0.35646927844 0.36061651398 0.28181169897 0.28139002676 0.2810159877 0.28069680016 
0.28043949512 0.28025081984 0.2801371435 0.28010436632 0.28015783431 0.28030226103 0.28054165812 0.28087927592 0.28131755509 
0.2818580903 0.28250160637 0.28324794715 0.27484425207 0.2720500077 0.26933895532 0.26672550604 0.26422358828 0.26184649227 
0.25960672111 0.25751585136 0.25558440552 0.25382173897 0.25223594342 0.25083376876 0.24962056455 0.24860024223 0.24777525847 
0.24714661966 0.3446601156 0.34488918384 0.34516843766 0.34550548068 0.3459077545 0.34638245975 0.34693647852 0.34757629939 
0.34830794587 0.34913690923 0.35006808665 0.35110572545 0.3522533743 0.35351384201 0.35488916453 0.35638058072 0.40155465747 
0.40724301803 0.41305406124 0.41897930472 0.42500953077 0.43113487275 0.43734490824 0.44362875648 0.44997517781 0.45637267289 
0.46280957952 0.46927416518 0.47575471351 0.48223960359 0.48871738075 0.49517681845 0.32370078049 0.3233764886 0.32319884708 
0.32317810352 0.32332347727 0.32364303849 0.3241436055 0.32483066247 0.3257082989 0.3267791717 0.32804449034 0.32950402472 
0.33115613519 0.33299782325 0.33502480146 0.33723158034 0.35879072507 0.35749800318 0.35619683076 0.35489950727 0.35361866106 
0.35236712458 0.3511578032 0.35000353958 0.34891697567 0.34791041437 0.34699568333 0.34618400304 0.34548586175 0.34491089929 
0.34446780195 0.34416421048 0.26753091273 0.26601966564 0.26447492615 0.26290473287 0.26131758738 0.25972240928 0.25812848408 
0.25654540372 0.25498299978 0.25345126996 0.25196029817 0.25052016932 0.24914087986 0.2478322454 0.24660380708 0.24546473823 
0.39586362286 0.40084318558 0.40594715503 0.41116940915 0.41650304425 0.42194043309 0.42747329189 0.43309275449 0.43878945181 
0.4445535946 0.45037505762 0.45624346332 0.46214826336 0.46807881654 0.47402446175 0.479974585 0.28954419371 0.2895402453 
0.28972394524 0.29009954836 0.29067021899 0.29143797486 0.29240364704 0.29356685736 0.29492601407 0.29647832634 0.29821983728 
0.30014547517 0.30224912172 0.30452369582 0.306961251 0.30955308411 0.46960034675 0.47543491203 0.48130551726 0.48720251584 
0.4931159944 0.49903583324 0.50495176824 0.51085345321 0.5167305216 0.52257264675 0.52836959953 0.53411130261 0.53978788051 
0.54538970472 0.55090743334 0.5563320448 0.44378910363 0.45028118341 0.4569068164 0.46365564669 0.47051656004 0.47747776608 
0.48452688983 0.49165107096 0.49883706896 0.5060713722 0.5133403087 0.52063015663 0.5279272522 0.53521809291 0.54248943433 
0.54972837868 0.3193740505 0.32122075319 0.32326175116 0.32550012643 0.3279372532 0.33057277764 0.3334046275 0.33642905082 
0.33964068246 0.34303263665 0.34659662287 0.35032308206 0.35420133982 0.35821977256 0.36236598295 0.36662698035 0.45646118772 
0.46441483706 0.47246453659 0.4805941173 0.48878717047 0.49702719148 0.50529771856 0.51358246371 0.52186543362 0.53013103872 
0.53836418873 0.54655037363 0.55467572947 0.56272708868 0.57069201513 0.57855882446 0.24890307182 0.24629131211 0.24371876768 
0.24119468579 0.23872845345 0.23632954179 0.23400744465 0.23177161178 0.22963137689 0.22759588143 0.22567399505 0.22387423392 
0.22220467845 0.22067289214 0.21928584316 0.21804983082 0.30119116528 0.30408694989 0.30715409279 0.31039119717 0.31379548284 
0.31736282119 0.32108779357 0.3249637713 0.3289830151 0.33313679131 0.33741550184 0.34180882437 0.34630585948 0.35089528091 