# vtk DataFile Version 5.1
vtk output
ASCII
DATASET POLYDATA
POINTS 252 float
0.89955 0.027343 -0.089675 0.8722 0.051143 -0.161192 0.793653 0.095035 -0.041321 
0.892122 0.091491 -0.110784 0.86775 -0.013158 -0.097333 0.807098 0.094111 -0.10234 
0.789817 -0.283792 -0.060538 0.801866 0.30003 -0.050569 0.705426 0.007025 -0.108171 
0.764669 -0.295813 -0.103947 0.772181 -0.235579 -0.030098 0.740685 -0.022015 -0.089005 
0.802375 -0.246807 -0.125572 0.774523 0.26146 -0.018951 0.795395 -0.209429 -0.081526 
0.770285 0.314765 -0.083317 0.799397 0.055856 -0.129939 0.74529 -0.009198 -0.008436 
0.831555 0.044656 -0.032672 0.656279 0.220149 -0.024904 0.640232 0.217548 0.028961 
0.757965 0.365486 -0.039356 0.617341 -0.220461 0.019161 0.682954 -0.193414 -0.100126 
0.697631 -0.181773 -0.033398 0.677546 -0.306302 -0.058749 0.707279 0.068651 0.006303 
0.676361 0.260319 0.047027 0.680939 0.317828 -0.047988 0.590015 0.068962 0.032717 
0.650193 0.082222 -0.076551 0.626185 -0.282499 -0.002103 0.759038 0.323715 0.013656 
0.578095 0.053337 -0.094828 0.593212 0.293993 0.058529 0.652234 0.096155 -0.04142 
0.634449 -0.263502 -0.110677 0.654664 0.334625 0.011306 0.635379 -0.015162 0.019763 
0.587922 0.231128 -0.04141 0.508033 -0.048745 0.01726 0.507143 -0.006182 -0.093961 
0.527081 -0.147635 0.013821 0.451869 -0.270036 0.024576 0.50752 -0.22523 -0.090567 
0.54127 -0.174366 -0.08411 0.546361 -0.147933 -0.034107 0.497351 0.100606 -0.012607 
0.478471 0.153393 -0.015202 0.503177 0.539313 -0.002029 0.523987 0.270453 -0.033449 
0.534576 -0.048785 -0.053757 0.442913 0.609707 0.012867 0.494239 0.594415 0.011332 
0.431272 0.180587 -0.046634 0.472704 0.5295 0.055591 0.442835 0.557849 -0.022171 
0.408754 0.242517 -0.041396 0.416624 0.445218 0.05272 0.422682 -0.154537 0.061695 
0.458824 0.071573 0.052116 0.453546 -0.220132 0.060861 0.439935 0.261227 0.07879 
0.377579 -0.108673 0.040136 0.422781 0.526064 0.08168 0.456955 0.29084 0.021443 
0.475575 0.153891 0.048803 0.351054 0.521088 0.076194 0.458668 -0.2793 -0.044801 
0.452168 0.195117 0.091987 0.301402 0.001452 -0.082252 0.380353 -0.238513 -0.060521 
0.283761 0.22612 0.00592 0.352297 0.523367 0.024379 0.362832 0.053143 0.065906 
0.309879 -0.187602 0.060434 0.35701 0.433929 -0.002424 0.352889 0.126818 0.005568 
0.367127 -0.044907 0.03438 0.3512 -0.169237 -0.086982 0.339085 -0.090687 0.059891 
0.352708 -0.042582 -0.045598 0.349535 -0.125559 -0.050312 0.246115 0.196951 -0.035326 
0.353764 0.081301 0.029711 0.278427 0.294312 0.085007 0.294721 -0.092339 -0.021043 
0.270916 0.385697 0.125196 0.290344 -0.223021 0.040411 0.294418 0.032975 -0.08111 
0.286173 0.22484 0.066188 0.230623 -0.042054 -0.07138 0.25443 0.151313 -0.050302 
0.331199 0.067636 -0.051181 0.304778 0.19779 0.090396 0.270825 -0.235764 -0.027539 
0.230627 0.428527 0.05512 0.260713 -0.177468 -0.084498 0.23121 0.002064 0.109124 
0.325591 0.34991 0.024026 0.265606 0.22419 0.09005 0.233889 -0.106567 -0.082673 
0.233847 0.342554 -0.003518 0.246045 0.437105 0.09212 0.335405 0.123409 0.069622 
0.164526 -0.066248 0.106945 0.193859 0.111992 -0.053503 0.2332 0.268685 0.061798 
0.136649 -0.215851 0.079536 0.228956 -0.140376 0.105654 0.245734 0.416428 0.015343 
0.131183 -0.107973 -0.111741 0.14516 -0.61504 0.095737 0.196199 0.285845 0.119059 
0.151589 -0.533221 0.050897 0.168684 -0.655256 0.001444 0.127054 0.337557 0.020693 
0.121296 -0.714572 0.06312 0.154407 0.015476 -0.117029 0.119533 0.268887 -0.004802 
0.191357 -0.187256 -0.08265 0.14235 0.213484 -0.021738 0.136021 -0.632654 -0.034863 
0.070431 0.137808 -0.088293 0.115421 -0.512657 -0.002692 0.077936 -0.57246 0.14408 
0.109972 -0.704494 -0.037554 0.109413 0.344112 0.070114 0.016398 -0.056238 0.091784 
0.162633 0.163876 0.124962 0.097159 -0.241685 -0.000734 0.079489 -0.706983 0.014541 
0.111617 -0.509594 0.121662 0.038058 -0.610661 0.037084 0.114825 -0.124667 0.101172 
0.100001 0.06674 -0.107317 0.051802 -0.245593 0.077617 0.101845 0.260031 0.161088 
0.128565 0.053382 0.112129 -0.002289 -0.097082 -0.135898 0.060021 0.301116 -0.001882 
0.098866 -0.450826 0.064884 0.035429 -0.436712 0.007405 0.062638 -0.495021 0.145297 
0.135072 0.336324 0.120019 0.037248 -0.592993 0.122823 0.072556 -0.208005 -0.071939 
-0.14144 -0.138024 -0.120661 -0.003018 -0.402304 0.115498 -0.074092 -0.263662 -0.077305 
0.062831 -0.559901 -0.010166 -0.027051 -0.542671 0.037063 0.035759 0.168545 0.147354 
0.011491 -0.363753 0.070871 -0.056956 -0.438209 -0.018829 -0.02135 -0.481023 0.137078 
0.04372 -0.204792 0.099181 0.019208 -0.285061 0.023879 -0.019799 -0.130727 0.104688 
-0.00969 -0.514081 -0.010533 -0.117694 0.032485 -0.161645 -0.012761 0.295493 0.12414 
-0.064341 -0.496895 0.086765 -0.065904 0.226539 0.155842 -0.028058 -0.354594 0.004971 
-0.036631 -0.320618 0.099582 -0.089117 0.278778 -0.009606 -0.093018 -0.413975 0.128372 
-0.123596 0.078382 0.099705 -0.0214 0.066092 -0.12622 -0.006645 -0.016383 -0.133437 
-0.026417 0.302645 0.066283 -0.069564 0.234291 -0.068744 -0.073951 -0.219473 0.128579 
-0.154621 -0.453533 0.016181 -0.142241 -0.382554 -0.058934 -0.135095 -0.340414 0.139416 
-0.180412 0.250904 0.126315 -0.195868 0.288229 0.034484 -0.159095 -0.426278 0.111155 
-0.119258 0.107189 -0.139879 -0.119142 -0.301506 -0.061073 -0.197689 0.054054 0.10245 
-0.235772 0.077571 -0.180395 -0.176604 -0.420963 -0.027845 -0.19473 -0.157192 0.157146 
-0.143122 -0.014109 0.100002 -0.24328 0.135224 0.139351 -0.259761 0.183308 -0.143724 
-0.253843 -0.024138 -0.192633 -0.191644 -0.431007 0.077654 -0.239525 -0.225274 0.155211 
-0.229672 -0.090697 -0.166345 -0.266715 -0.267701 0.135673 -0.303805 0.018996 0.130546 
-0.291319 -0.306614 0.062365 -0.267416 -0.269994 -0.083601 -0.307551 0.180882 0.128931 
-0.23688 -0.374974 0.015377 -0.331895 -0.137672 0.143806 -0.32125 -0.2288 -0.050557 
-0.291272 0.225941 -0.102596 -0.308156 0.243518 0.063823 -0.356387 -0.213978 0.095141 
-0.252675 -0.18826 -0.087296 -0.33894 0.243568 -0.007885 -0.363526 -0.061349 0.10833 
-0.401277 -0.201134 0.015432 -0.354026 0.117116 0.141355 -0.471645 0.221688 -0.104957 
-0.404258 0.041575 0.102104 -0.387291 -0.007835 -0.211062 -0.424177 0.179704 0.079115 
-0.412679 -0.084223 0.068977 -0.486465 -0.00679 -0.209769 -0.380361 -0.174133 -0.050461 
-0.422135 0.120367 -0.205049 -0.360245 -0.169021 -0.131576 -0.420134 -0.171896 0.040695 
-0.42136 -0.076335 -0.192051 -0.445537 0.213179 0.035595 -0.45327 0.199574 -0.174888 
-0.528473 -0.117761 -0.161745 -0.516922 -0.057621 0.076094 -0.553804 0.231829 0.027233 
-0.641661 -0.034436 0.116281 -0.715626 0.051315 -0.154156 -0.554139 0.182748 -0.180161 
-0.522546 0.189788 0.085458 -0.669075 0.265691 -0.002432 -0.554226 0.034538 0.123367 
-0.567501 -0.168092 -0.069333 -0.567169 -0.152989 0.00174 -0.660546 -0.073995 -0.150435 
-0.640155 0.162472 -0.159142 -0.740669 0.134163 0.178911 -0.60023 0.23723 -0.090955 
-0.728562 -0.117779 -0.093784 -0.720296 -0.148443 -0.014069 -0.710596 -0.100939 0.08078 
-0.766183 -0.002975 -0.143661 -0.732997 0.266227 0.092108 -0.698816 0.216855 -0.117859 
-0.736491 0.052468 0.176245 -0.804955 0.281756 -0.019311 -0.81073 0.13111 -0.133615 
-0.729275 0.206528 0.151453 -0.77643 0.170186 0.150604 -0.820392 0.271104 0.086874 
-0.819432 0.238308 -0.083689 -0.849066 0.23818 -0.050994 0.514418 0.003041 0.059942 

POLYGONS 501 1500
OFFSETS vtktypeint64
0 3 6 9 12 15 18 21 24 
27 30 33 36 39 42 45 48 51 
54 57 60 63 66 69 72 75 78 
81 84 87 90 93 96 99 102 105 
108 111 114 117 120 123 126 129 132 
135 138 141 144 147 150 153 156 159 
162 165 168 171 174 177 180 183 186 
189 192 195 198 201 204 207 210 213 
216 219 222 225 228 231 234 237 240 
243 246 249 252 255 258 261 264 267 
270 273 276 279 282 285 288 291 294 
297 300 303 306 309 312 315 318 321 
324 327 330 333 336 339 342 345 348 
351 354 357 360 363 366 369 372 375 
378 381 384 387 390 393 396 399 402 
405 408 411 414 417 420 423 426 429 
432 435 438 441 444 447 450 453 456 
459 462 465 468 471 474 477 480 483 
486 489 492 495 498 501 504 507 510 
513 516 519 522 525 528 531 534 537 
540 543 546 549 552 555 558 561 564 
567 570 573 576 579 582 585 588 591 
594 597 600 603 606 609 612 615 618 
621 624 627 630 633 636 639 642 645 
648 651 654 657 660 663 666 669 672 
675 678 681 684 687 690 693 696 699 
702 705 708 711 714 717 720 723 726 
729 732 735 738 741 744 747 750 753 
756 759 762 765 768 771 774 777 780 
783 786 789 792 795 798 801 804 807 
810 813 816 819 822 825 828 831 834 
837 840 843 846 849 852 855 858 861 
864 867 870 873 876 879 882 885 888 
891 894 897 900 903 906 909 912 915 
918 921 924 927 930 933 936 939 942 
945 948 951 954 957 960 963 966 969 
972 975 978 981 984 987 990 993 996 
999 1002 1005 1008 1011 1014 1017 1020 1023 
1026 1029 1032 1035 1038 1041 1044 1047 1050 
1053 1056 1059 1062 1065 1068 1071 1074 1077 
1080 1083 1086 1089 1092 1095 1098 1101 1104 
1107 1110 1113 1116 1119 1122 1125 1128 1131 
1134 1137 1140 1143 1146 1149 1152 1155 1158 
1161 1164 1167 1170 1173 1176 1179 1182 1185 
1188 1191 1194 1197 1200 1203 1206 1209 1212 
1215 1218 1221 1224 1227 1230 1233 1236 1239 
1242 1245 1248 1251 1254 1257 1260 1263 1266 
1269 1272 1275 1278 1281 1284 1287 1290 1293 
1296 1299 1302 1305 1308 1311 1314 1317 1320 
1323 1326 1329 1332 1335 1338 1341 1344 1347 
1350 1353 1356 1359 1362 1365 1368 1371 1374 
1377 1380 1383 1386 1389 1392 1395 1398 1401 
1404 1407 1410 1413 1416 1419 1422 1425 1428 
1431 1434 1437 1440 1443 1446 1449 1452 1455 
1458 1461 1464 1467 1470 1473 1476 1479 1482 
1485 1488 1491 1494 1497 1500 
CONNECTIVITY vtktypeint64
173 158 186 134 128 158 156 158 173 
190 179 193 162 167 179 182 187 194 
187 208 194 230 235 243 98 138 105 
128 105 138 185 186 194 199 185 194 
109 98 105 109 105 134 134 105 128 
173 186 185 109 134 108 185 199 191 
193 191 199 193 199 203 156 173 165 
165 173 176 173 185 176 176 185 191 
179 176 193 176 191 193 167 165 176 
148 153 165 148 165 167 167 176 179 
132 141 143 143 141 148 155 143 148 
155 148 167 162 155 167 112 114 132 
125 132 143 143 155 125 112 132 125 
155 145 125 145 155 162 117 112 125 
117 125 145 30 93 47 93 30 33 
35 30 47 5 30 35 2 5 35 
3 5 2 3 2 18 92 106 123 
121 83 123 83 92 123 39 48 54 
220 209 224 140 121 172 121 123 172 
57 92 83 57 54 92 50 54 57 
50 39 54 205 178 201 166 201 178 
140 172 166 140 119 121 5 16 30 
224 236 229 244 250 248 209 221 236 
201 221 209 201 188 221 222 233 214 
214 219 222 204 217 219 219 189 204 
233 240 226 226 214 233 211 219 214 
211 189 219 226 240 245 216 211 214 
189 211 216 183 189 216 160 189 183 
245 234 226 234 214 226 227 214 234 
227 216 214 221 216 227 227 234 242 
221 227 236 28 19 39 28 15 19 
15 7 19 21 15 28 41 70 89 
8 11 41 14 12 23 45 23 36 
45 36 44 240 243 245 0 3 18 
4 0 17 33 41 93 93 41 89 
93 89 106 11 4 17 11 51 41 
41 51 70 70 51 81 70 81 91 
63 82 86 86 82 101 91 86 101 
24 23 45 24 45 46 46 45 82 
82 45 79 82 79 101 231 232 238 
238 232 239 14 23 24 10 14 24 
7 15 21 204 181 196 175 196 181 
12 9 36 231 215 207 217 196 200 
147 181 204 147 149 181 23 12 36 
237 231 238 207 232 231 217 215 231 
200 215 217 147 146 149 139 146 147 
139 120 146 111 120 139 111 97 120 
101 97 111 79 97 101 91 101 111 
238 239 240 118 111 170 91 111 118 
70 91 118 170 135 118 89 118 135 
89 70 118 33 8 41 30 8 33 
16 8 30 16 11 8 1 11 16 
1 4 11 1 0 4 3 0 1 
123 135 169 106 89 135 5 1 16 
3 1 5 123 180 172 123 106 135 
209 236 224 205 209 220 205 201 209 
172 188 201 201 166 172 244 249 250 
111 139 170 135 170 169 123 169 180 
172 180 188 236 242 244 236 244 229 
204 196 217 233 231 237 233 222 231 
217 231 222 219 217 222 94 100 129 
87 144 113 144 127 161 100 85 113 
85 87 113 113 144 137 137 144 163 
144 161 163 163 161 177 69 62 94 
129 100 113 129 113 137 129 137 152 
137 163 152 187 163 177 187 177 197 
248 235 246 235 248 247 94 129 104 
168 152 163 168 163 187 187 197 208 
104 129 138 138 129 152 138 152 168 
247 243 235 98 104 138 194 186 182 
192 147 204 240 237 238 240 233 237 
189 192 204 139 147 192 189 139 192 
170 189 160 170 139 189 169 170 160 
188 160 183 180 160 188 180 169 160 
242 234 245 188 183 216 245 250 249 
242 245 249 244 242 249 227 242 236 
188 216 221 168 187 182 74 104 98 
84 104 74 84 77 104 66 104 77 
74 60 84 60 47 84 29 47 60 
228 246 235 230 210 228 210 212 228 
208 212 210 208 197 212 69 94 104 
66 69 104 228 241 246 197 202 212 
197 177 202 94 90 100 62 90 94 
19 20 66 20 69 66 20 27 69 
246 241 248 177 161 178 161 171 178 
100 90 107 90 65 72 62 65 90 
85 100 107 107 90 121 177 178 202 
52 56 73 52 53 56 49 56 53 
122 133 150 122 126 133 72 83 121 
54 77 92 84 93 106 65 57 72 
72 57 83 90 72 121 107 121 119 
205 220 202 212 202 220 228 212 220 
228 220 224 224 229 241 228 224 241 
250 247 248 39 19 48 19 66 48 
48 66 77 54 48 77 245 247 250 
26 2 35 29 26 35 35 47 29 
47 93 84 92 77 84 106 92 84 
0 18 17 18 2 26 18 26 17 
240 239 243 11 17 38 51 11 38 
51 38 40 51 40 81 81 40 78 
175 154 184 154 174 184 154 159 174 
164 154 181 196 198 200 184 198 196 
181 154 175 130 164 181 149 130 181 
146 130 149 44 68 71 44 36 68 
36 25 68 9 25 36 9 6 25 
215 200 207 120 130 146 95 130 120 
97 95 120 71 95 97 79 71 97 
44 71 79 6 14 10 6 12 14 
175 184 196 12 6 9 45 44 79 
20 19 13 241 229 244 202 178 205 
171 166 178 171 140 166 102 107 119 
65 50 57 37 50 65 62 37 65 
13 27 20 7 13 19 7 32 13 
127 140 171 127 116 140 116 119 140 
102 119 116 102 116 110 102 99 107 
99 85 107 37 28 50 32 21 37 
21 28 37 7 21 32 96 110 116 
76 102 110 102 76 99 58 99 76 
73 110 96 73 76 110 49 58 76 
73 56 76 56 49 76 241 244 248 
153 142 164 142 154 164 153 141 142 
195 203 207 200 195 207 200 198 195 
130 108 136 157 153 164 195 198 190 
141 114 124 112 115 114 75 80 109 
22 42 59 59 80 75 108 134 156 
156 134 158 199 206 218 203 199 218 
22 59 61 88 61 75 61 59 75 
88 75 109 88 109 108 136 108 156 
31 22 61 43 31 61 88 43 61 
136 156 165 157 136 165 193 203 195 
28 39 50 153 157 165 195 190 193 
141 153 148 174 162 190 162 179 190 
114 141 132 151 145 162 117 145 131 
133 131 145 133 145 151 115 112 117 
64 67 87 67 103 87 85 64 87 
87 103 144 130 136 157 68 88 95 
68 43 88 31 43 68 25 31 68 
31 10 22 6 31 25 6 10 31 
207 203 218 95 108 130 95 88 108 
24 42 22 10 24 22 218 213 223 
232 218 223 207 218 232 46 82 63 
42 46 63 24 46 42 232 225 239 
232 223 225 78 86 91 78 63 86 
81 78 91 130 157 164 71 68 95 
63 80 59 59 42 63 218 206 213 
109 80 98 80 63 78 239 225 243 
225 230 243 223 230 225 223 210 230 
213 210 223 213 206 210 194 210 206 
199 194 206 128 168 186 158 128 186 
80 74 98 78 74 80 78 251 74 
40 251 78 194 208 210 186 168 182 
128 138 168 251 60 74 29 60 251 
38 29 251 38 26 29 230 228 235 
243 247 245 40 38 251 17 26 38 
184 174 198 115 126 122 49 53 55 
67 52 73 96 116 127 13 32 27 
198 174 190 142 141 124 142 159 154 
124 150 142 142 150 159 159 151 174 
151 162 174 114 115 124 115 122 124 
124 122 150 133 151 150 159 150 151 
126 131 133 126 115 117 131 126 117 
55 53 64 64 53 52 64 52 67 
58 49 55 67 73 96 67 96 103 
58 55 64 85 58 64 103 96 144 
32 37 34 58 85 99 144 96 127 
161 127 171 27 32 34 27 34 69 
34 37 62 69 34 62 
POINT_DATA 252
SCALARS k float
LOOKUP_TABLE default
1.03168 1.81911 0.256081 1.61144 0.956473 0.0617504 1.06525 1.49579 -0.0872692 
0.67762 0.573814 -0.0858648 1.9498 0.778894 1.03806 1.39374 -0.158562 0.211481 
0.277115 -0.119865 0.0296778 1.55957 0.0267895 0.109811 0.0952832 0.182749 0.0641879 
0.177617 -0.228622 0.0341789 -0.128046 0.113703 0.708552 0.0782942 0.0963329 -0.049143 
0.121774 -0.0279378 -0.0293425 -0.0183668 0.155072 -0.0265709 -0.00418723 0.170606 -0.0847006 
-0.0788444 0.0259966 0.111604 0.147824 1.46311 -0.144747 0.0727466 1.50481 1.7382 
0.0292518 0.427459 0.543939 0.0905977 -0.0619478 0.0128131 0.106221 0.178316 0.132709 
-1.43343 0.277647 0.0918298 0.100092 0.109399 0.0625705 0.176868 -0.18293 -0.0186605 
-0.155477 -0.125387 -0.892058 -0.187577 -0.209893 -1.14222 -2.51786 -0.119199 -0.341122 
-0.124987 -0.122383 -0.18776 -1.84981 -0.920314 -0.037529 0.174481 -0.232466 -0.113222 
-1.02593 -0.43592 -0.22084 -0.31074 -0.364629 -0.232302 -0.0598198 -0.127663 0.0381476 
0.246703 -1.42921 -0.288866 -0.0164736 0.0148891 -1.29634 -0.00242746 -0.29613 -0.635222 
-0.155614 0.167065 -0.0477834 -0.0509222 0.327938 -0.159974 0.317645 0.798406 -0.263503 
1.48084 0.00745001 -0.417216 -0.0236406 -0.225811 0.249674 -0.0811053 0.229975 0.362235 
2.0084 -0.196257 0.028304 -0.0349754 -0.616729 0.626607 0.318811 -0.431053 -0.0455005 
-0.029494 -0.33895 0.274897 -0.0870543 -0.0189207 -0.150036 0.158933 -0.168327 0.234782 
-0.332685 0.120418 -0.141941 -0.0410209 -0.129386 0.035455 -0.26406 -0.196554 0.0141528 
-0.906917 -0.32147 -0.0238739 -0.0958018 -0.416382 -0.0239284 -0.0123024 0.0129035 -0.0182669 
-0.231697 0.0225194 -0.811673 -0.559909 -0.0389202 -0.221708 0.0531486 -0.0181954 -0.0264082 
-0.0935328 -0.0349042 -0.0259174 -0.141014 0.156707 -0.0148734 0.0782437 0.131446 0.140761 
-0.00402033 -0.232799 0.0784242 0.0170832 0.301672 0.0897627 0.0095101 -0.0817249 -0.00825092 
-0.057288 0.273673 0.060617 0.115308 0.0404189 -0.210817 -0.114344 -0.225533 0.0179749 
0.0457683 0.243904 -0.0218754 -0.0505327 -0.0182304 0.0892536 0.123422 -0.0590375 -0.103582 
-0.521304 0.309803 -0.0729718 -0.2955 0.0482534 -0.384845 -0.0272831 0.0915594 0.215826 
0.0821567 -0.399024 -0.379293 0.0467336 -0.248532 0.153234 0.110358 -0.111765 -0.0796871 
0.00998294 -0.0155029 0.129588 -0.164837 0.0426565 -0.0802115 -0.0193933 -0.219416 -0.00107646 
-0.0321778 0.340719 -0.041791 0.441365 0.699903 0.399017 0.311936 0.176655 -0.0393283 
0.612979 0.414729 0.422006 0.208107 0.122605 1.19352 0.336309 0.767709 0.212666 

FIELD FieldData 7
h 1 252 float
11.4362 1.07414 5.5949 2.2515 1.13637 0.599352 2.13258 0.523532 0.199501 
2.16199 0.639161 4.4663 1.55267 -1.13919 5.38934 5.31835 0.249786 0.654137 
3.17569 0.203676 0.34836 3.36694 0.108008 4.79587 21.4141 7.24872 0.850939 
0.339299 -0.335663 0.538291 0.261552 1.61483 -0.26909 0.836333 0.308549 8.32321 
-0.117332 3.27028 0.367514 -0.27372 0.804229 0.963038 -0.092117 3.33222 0.172403 
1.43036 -0.458174 0.0556124 0.150342 5.00442 -0.0699498 1.09363 4.93288 0.325453 
0.540994 -0.290563 1.01075 0.644364 1.3364 0.148945 0.383017 0.215055 0.618431 
-4.68633 0.505473 -0.147136 0.405148 2.12602 1.16481 0.544057 0.672204 0.0567936 
-0.0928462 2.04562 0.134289 0.0137509 -0.489975 -0.207448 0.641001 0.740859 0.0280939 
0.307655 0.0333043 0.279552 -0.854245 0.0764773 -0.355992 0.825406 0.486723 0.798223 
2.94935 0.492212 0.322678 0.386599 0.342628 0.0300504 1.12112 0.405052 0.3587 
-0.557141 0.46306 0.613447 -0.0897974 1.30701 0.135967 0.241163 0.559258 -1.22062 
0.245433 0.302529 0.977731 0.751524 2.668 0.553885 11.9714 3.41529 0.982982 
4.51123 1.02333 -0.290586 0.321497 0.191611 -0.430064 0.681289 -1.75564 2.17247 
1.68639 8.92462 0.00181832 0.463076 -0.41595 1.22092 3.14013 4.59844 0.130339 
1.00062 0.510302 0.8546 0.320416 0.904493 0.590082 10.6916 -1.1787 -0.239456 
0.954822 3.89581 0.322048 0.747622 -0.198358 0.474826 -0.0540585 3.07138 0.525335 
-1.93322 -0.0539909 1.59092 0.13159 0.212097 0.0587691 0.400386 1.28391 1.46252 
2.43681 0.440958 -0.463931 0.110397 1.49823 0.450305 0.00325166 1.10125 1.06984 
2.29571 0.908206 0.215031 2.62048 0.42212 0.288323 0.92416 6.36877 0.623313 
1.28202 0.265049 -0.0324229 1.42745 1.22579 0.286226 0.0448787 0.212663 1.53042 
1.26566 5.52178 0.577639 1.20012 0.967135 0.247006 4.69369 1.11624 0.815379 
4.0768 0.605355 2.33552 2.13948 2.89368 1.39034 0.625137 4.41523 0.471657 
4.65962 0.393238 2.00038 0.122363 1.66975 0.628128 0.166717 1.85203 1.57613 
1.50307 1.89945 0.568367 1.35297 4.80297 2.51351 2.58412 0.426016 5.09629 
0.78454 1.61551 2.20393 0.367875 3.90423 0.15067 3.67939 1.71189 2.05596 
1.76611 0.0510651 2.9866 3.93137 7.78574 6.25725 3.34711 4.39386 2.82836 
1.80551 2.72825 2.85894 0.862032 0.692659 5.69337 2.68817 1.67382 0.484853 

kmin 1 252 float
21.5306 2.99975 11.4112 5.53703 2.76054 2.26529 4.68885 1.30712 1.15362 
5.55262 1.29279 9.06181 3.86957 0.483304 12.4587 11.8289 1.52264 2.14219 
6.26631 0.884036 0.451872 7.06878 0.568453 10.8127 43.7018 15.5511 1.37847 
0.446115 0.376205 0.674542 1.13555 3.46665 -0.0368733 2.25268 0.529098 17.4453 
0.50404 6.35015 0.392969 0.328012 1.49666 2.38234 0.219645 6.48142 0.904939 
3.59697 0.167509 0.812761 1.39154 11.0508 0.612444 2.69212 10.7472 0.980114 
1.69049 1.07214 3.52676 1.86669 1.84274 0.515562 0.558399 0.413463 0.990018 
-0.263739 0.67346 0.176789 0.586889 4.56742 2.7937 0.732405 1.71383 0.54417 
0.317885 5.74885 0.251022 0.21803 0.343659 0.79849 1.19525 1.84961 0.267145 
0.972248 0.802181 1.06362 -0.568673 0.265543 0.090881 1.2632 0.738519 1.88347 
6.10261 1.29183 1.06064 1.25869 0.476565 0.132722 3.22955 1.09414 0.476517 
0.288218 0.796876 1.49857 0.73259 2.534 0.276165 0.408547 1.47718 -0.638294 
0.551404 0.451325 3.26115 1.61336 5.9825 0.817219 24.3284 9.28273 2.69842 
8.60689 2.12453 0.160734 0.841838 0.798632 0.616039 1.561 -0.279689 3.84984 
4.23478 18.8078 0.189428 0.642372 -0.139884 3.58622 6.30481 9.93632 0.367595 
2.11465 0.916637 1.16551 0.434462 1.7325 1.50909 21.5185 -0.517066 1.17259 
1.55796 9.08591 0.839373 1.52239 0.609991 1.13796 1.0428 6.82727 0.654764 
0.974835 0.0834416 2.98814 0.384808 2.2136 0.225978 1.43091 2.35618 2.67212 
5.08317 0.497364 -0.293368 0.376206 3.25118 0.80946 0.151082 2.22342 2.13302 
5.27644 1.96308 0.3661 5.72766 0.929017 0.460023 1.68067 13.4304 1.11068 
2.52247 0.636835 0.149507 2.41874 2.45638 0.58427 0.218594 0.371885 2.8291 
2.26792 11.3845 0.796214 2.12125 1.63659 0.370845 9.80116 2.25427 1.35833 
8.66937 0.856394 4.64665 4.35876 6.29587 2.83733 1.32137 9.15359 0.769657 
9.59852 0.584416 4.2456 0.384217 2.80174 1.24331 0.649821 2.96785 3.27737 
2.58866 3.45849 1.4531 2.26972 10.3602 4.87356 4.35963 0.975803 10.6451 
1.66659 2.81539 3.82389 0.999061 7.88954 0.358136 6.76714 3.56558 3.23961 
2.95762 1.29864 6.10585 6.89295 15.5638 12.1363 5.82879 9.0243 5.4304 
2.72258 5.68932 3.5006 2.85734 2.35041 9.16975 4.98553 3.60568 0.575653 

kmax 1 252 float
1.34192 -0.851468 -0.221406 -1.03402 -0.48779 -1.06659 -0.423701 -0.260059 -0.754614 
-1.22864 -0.0144705 -0.129203 -0.76424 -2.76169 -1.68001 -1.19221 -1.02307 -0.833912 
0.0850743 -0.476685 0.244848 -0.33489 -0.352436 -1.22101 -0.873681 -1.05365 0.323403 
0.232483 -1.04753 0.40204 -0.612447 -0.236977 -0.501306 -0.580016 0.0880005 -0.798916 
-0.738705 0.190411 0.342058 -0.875452 0.111802 -0.456269 -0.403879 0.183023 -0.560133 
-0.736256 -1.08386 -0.701536 -1.09086 -1.04194 -0.752344 -0.504859 -0.881465 -0.329208 
-0.608505 -1.65327 -1.50526 -0.577962 0.830066 -0.217672 0.207635 0.0166466 0.246844 
-9.10892 0.337485 -0.471062 0.223408 -0.315377 -0.464077 0.35571 -0.369421 -0.430583 
-0.503577 -1.65761 0.0175568 -0.190529 -1.32361 -1.21339 0.0867572 -0.367894 -0.210957 
-0.356939 -0.735572 -0.504518 -1.13982 -0.112588 -0.802866 0.387616 0.234927 -0.287027 
-0.203914 -0.307409 -0.41528 -0.485491 0.208691 -0.0726209 -0.987313 -0.28404 0.240883 
-1.4025 0.129244 -0.27168 -0.912185 0.0800132 -0.00423052 0.0737796 -0.358668 -1.80295 
-0.060538 0.153732 -1.30569 -0.110308 -0.646509 0.290552 -0.385523 -2.45215 -0.732452 
0.415575 -0.0778663 -0.741906 -0.198844 -0.415409 -1.47617 -0.198422 -3.2316 0.495103 
-0.862007 -0.958563 -0.185792 0.28378 -0.692016 -1.14438 -0.0245536 -0.73943 -0.106918 
-0.113396 0.103967 0.543685 0.20637 0.0764833 -0.328932 -0.135272 -1.84033 -1.65151 
0.351685 -1.29428 -0.195277 -0.0271427 -1.00671 -0.188312 -1.15092 -0.6845 0.395906 
-4.84126 -0.191423 0.193712 -0.121629 -1.7894 -0.10844 -0.630142 0.211634 0.25292 
-0.209546 0.384552 -0.634494 -0.155412 -0.254726 0.0911501 -0.144579 -0.0209099 0.00665585 
-0.685021 -0.146664 0.0639618 -0.4867 -0.0847782 0.116624 0.167646 -0.692913 0.135945 
0.0415673 -0.106738 -0.214353 0.43616 -0.00480231 -0.0118178 -0.128836 0.0534403 0.23175 
0.263409 -0.34091 0.359063 0.278979 0.297676 0.123167 -0.413772 -0.0217883 0.272431 
-0.515776 0.354316 0.024387 -0.0798018 -0.508511 -0.0566423 -0.0710946 -0.323119 0.173656 
-0.279288 0.20206 -0.244848 -0.139492 0.537752 0.012941 -0.316388 0.736218 -0.125112 
0.41748 0.340419 -0.316367 0.436226 -0.754277 0.153457 0.808619 -0.12377 -0.452498 
-0.0975119 0.415623 0.583966 -0.263311 -0.0810756 -0.0567962 0.591632 -0.141803 0.872311 
0.574606 -1.19651 -0.132653 0.969798 0.00771139 0.378156 0.865421 -0.236576 0.226322 
0.888449 -0.23283 2.21728 -1.13327 -0.965089 2.21698 0.390818 -0.25805 0.394053 

hks 16 252 double
0.75493420604 0.76127261208 0.76753798509 0.77373238669 0.77985824056 0.78591823073 0.79191519771 0.79785203433 0.80373158294 
0.80955653535 0.81532933695 0.82105209621 0.82672650052 0.83235373925 0.83793443489 0.84346858275 0.6679920799 0.67612624867 
0.68420622354 0.69222607331 0.70018035829 0.70806410206 0.71587275651 0.72360216103 0.73124849703 0.7388082386 0.74627810039 
0.75365498363 0.76093592107 0.76811802187 0.77519841698 0.782174206 0.67267705077 0.67976555627 0.68683857992 0.69388837039 
0.70090772586 0.70789000333 0.71482911498 0.72171951195 0.7285561564 0.73533448245 0.7420503475 0.74869997503 0.75527989064 
0.76178685282 0.76821778023 0.77456967744 0.73492341026 0.74197122397 0.74893252275 0.75580625052 0.76259197035 0.76928979061 
0.77590028371 0.78242439872 0.78886336948 0.79521861959 0.80149166594 0.80768402199 0.81379710243 0.81983213046 0.82579004905 
0.83167143749 0.70611331194 0.71248832912 0.71889551391 0.72532813537 0.73177965634 0.73824373163 0.74471419843 0.75118505982 
0.75765046193 0.76410466597 0.77054201598 0.77695690344 0.78334372985 0.78969686832 0.79601062528 0.80227920316 0.6065917153 
0.6151236442 0.62362846231 0.6320951918 0.64051347519 0.64887360453 0.65716653768 0.66538390201 0.67351798587 0.68156171871 
0.68950864062 0.69735286252 0.70508901809 0.71271220886 0.72021794391 0.72760207561 0.63367224884 0.6401875904 0.64665332554 
0.65306589622 0.65942189833 0.66571803841 0.67195109038 0.67811785319 0.68421511042 0.69023959229 0.69618794065 0.70205667739 
0.70784217635 0.713540639 0.71914807363 0.72466027823 0.69159678204 0.69876930192 0.70583701803 0.71278647692 0.71960428432 
0.72627715256 0.73279194778 0.73913573641 0.74529583019 0.751259829 0.75701566089 0.76255161875 0.76785639323 0.7729191016 
0.77772931257 0.78227706707 0.49392944541 0.49846417325 0.5031435372 0.50796604987 0.51292926668 0.51802976182 0.52326311617 
0.52862391772 0.53410577466 0.53970134104 0.54540235473 0.55119968696 0.55708340279 0.56304283124 0.56906664392 0.57514294088 
0.67393613864 0.67881967223 0.68369662731 0.68856670445 0.69342945771 0.69828422938 0.70313008793 0.70796577051 0.7127896311 
0.71759959527 0.72239312213 0.72716717409 0.7319181946 0.73664209393 0.74133424279 0.74598947352 0.57025671799 0.57715743479 
0.58406757126 0.59097709586 0.59787611093 0.60475488212 0.61160386262 0.61841371264 0.62517531427 0.63187978195 0.63851846887 
0.64508296972 0.65156511998 0.65795699219 0.66425088943 0.67043933649 0.50243610622 0.51028975964 0.51822541351 0.52623065092 
0.53429280862 0.5423990511 0.55053644402 0.55869202618 0.56685287893 0.57500619258 0.58313932868 0.59123987772 0.59929571151 
0.60729502964 0.61522639975 0.6230787911 0.68044833182 0.68566106582 0.69085013686 0.69601578112 0.70115804591 0.70627672214 
0.71137128279 0.71644082842 0.7214840405 0.72649914302 0.73148387264 0.73643545727 0.74135060292 0.74622548831 0.75105576678 
0.75583657461 0.66866328696 0.6754934172 0.68219827515 0.6887672776 0.69519014876 0.70145691824 0.70755791546 0.71348376097 
0.71922535566 0.72477386836 0.73012072281 0.7352575846 0.74017634883 0.74486912934 0.74932825 0.7535462391 0.62756814973 
0.63419865754 0.64079898717 0.64736361751 0.65388713205 0.6603641984 0.66678954747 0.67315795294 0.67946421157 0.68570312482 
0.69186948216 0.69795804601 0.70396353869 0.70988063109 0.71570393313 0.72142798566 0.69377125056 0.70020863046 0.70663003796 
0.71301830948 0.71935588668 0.72562492744 0.73180742023 0.73788529998 0.74384056332 0.74965538156 0.75531220928 0.76079388699 
0.76608373632 0.77116564655 0.77602415154 0.78064449655 0.5523710632 0.56054562574 0.56876170681 0.57700677432 0.58526853697 
0.59353499003 0.60179445258 0.61003559613 0.61824746534 0.62641949107 0.63454149661 0.64260369763 0.65059669671 0.65851147301 
0.66633936804 0.67407206809 0.64631101415 0.65370109788 0.66106154056 0.66838757491 0.67567482971 0.68291929149 0.69011726008 
0.69726529891 0.70436018161 0.71139883601 0.71837828684 0.72529559829 0.7321478176 0.73893192066 0.74564476057 0.75228302013 
0.73977315463 0.74606414953 0.75228733676 0.75844297154 0.76453188962 0.77055541576 0.77651526419 0.78241343351 0.78825209769 
0.79403349554 0.79975982054 0.80543311283 0.81105515534 0.81662737564 0.82215075488 0.82762574541 0.59277631772 0.59997744437 
0.60709693688 0.61412193641 0.62103954794 0.62783687788 0.63450107403 0.64101936788 0.64737911877 0.65356785962 0.65957334371 
0.66538359179 0.67098693901 0.67637208098 0.68152811837 0.68644459956 0.5722893859 0.57766303227 0.58301583353 0.58833663541 
0.59361411862 0.59883683339 0.60399323541 0.60907172322 0.61406067697 0.61894849835 0.62372365152 0.62837470466 0.632890372 
0.63725955582 0.64147138837 0.64551527315 0.66596815845 0.67321556647 0.68040551388 0.68752164496 0.69454738383 0.7014660297 
0.70826085568 0.71491520945 0.7214126139 0.72773686591 0.73387213139 0.73980303479 0.74551474155 0.75099303222 0.75622436715 
0.76119594125 0.47610794082 0.48009004781 0.48418817111 0.48839927999 0.4927195754 0.49714447546 0.50166861029 0.50628582654 
0.51098920204 0.51577107068 0.52062305725 0.52553612192 0.53050061356 0.53550633113 0.54054259179 0.54559830465 0.61424996096 
0.62015529206 0.62607612258 0.632005197 0.63793541786 0.64385983689 0.64977164059 0.65566413145 0.66153070604 0.66736483108 
0.67316001874 0.67890980219 0.68460771225 0.69024725591 0.69582189732 0.70132504173 0.51417069567 0.52030942673 0.5264905839 
0.53270744045 0.53895296413 0.54521982714 0.55150041977 0.5577868676 0.56407105242 0.57034463674 0.57659909166 0.58282572762 