# vtk DataFile Version 5.1
vtk output
ASCII
DATASET POLYDATA
POINTS 252 float
0.902717 -0.113257 -0.054214 0.827268 -0.0751 -0.024164 0.851128 -0.097901 -0.134151 
0.844442 -0.148689 -0.074048 0.759902 -0.122545 -0.104478 0.874125 -0.037222 -0.084141 
0.777082 -0.025958 -0.09793 0.706722 -0.133298 -0.045371 0.670744 -0.053885 -0.092616 
0.690907 -0.100304 0.026935 0.734707 -0.034157 0.012697 0.557306 -0.083161 0.116006 
0.588691 -0.111033 -0.024771 0.55106 -0.004233 0.125503 0.648285 0.01231 -0.013074 
0.573018 -0.123244 0.037469 0.541787 0.028393 0.100043 0.430047 0.021566 0.176122 
0.578396 -0.014125 -0.041196 0.46329 -0.042977 0.172475 0.583934 -0.074047 -0.049034 
0.487173 -0.027745 -0.022485 0.505904 0.096323 -0.011164 0.538615 0.099417 -0.092034 
0.4213 -0.075657 0.17065 0.436994 0.110526 0.0871 0.501395 0.155601 -0.012822 
0.377291 0.167585 0.15186 0.511701 0.037493 0.031397 0.443823 0.20772 -0.006179 
0.520525 0.164208 -0.099743 0.448838 -0.178123 0.019012 0.490211 0.046815 -0.165187 
0.389907 -0.171774 0.144329 0.444978 -0.172838 -0.110377 0.446547 -0.250512 0.023519 
0.459522 -0.238176 -0.095196 0.430334 -0.101559 0.041888 0.468273 0.053879 -0.047746 
0.388787 0.044625 0.11287 0.33205 -0.125519 0.076251 0.293305 0.041606 0.184565 
0.35089 -0.037227 0.057385 0.363325 -0.090985 0.092048 0.338311 0.217603 0.115322 
0.315602 -0.078391 0.182402 0.300276 -0.113697 0.152349 0.414775 -0.14552 0.001957 
0.285201 -0.009187 0.238942 0.507889 0.128169 -0.210068 0.35916 0.073477 0.076037 
0.293995 -0.174231 0.2123 0.339154 -0.237304 0.15022 0.446357 0.047094 -0.123734 
0.264877 0.082707 0.197685 0.33591 -0.135421 0.011644 0.369695 0.057154 0.017489 
0.474394 0.075779 -0.225585 0.181778 -0.099162 0.23287 0.407604 -0.298347 -0.063015 
0.387144 0.180578 -0.087474 0.268845 -0.210674 0.183657 0.320111 0.053908 0.040949 
0.390837 -0.294436 -0.129359 0.279198 -0.176698 0.05474 0.301917 -0.249965 0.063655 
0.346446 -0.264671 -0.084291 0.304167 0.16491 0.017933 0.364451 0.091542 -0.062762 
0.35542 -0.176313 -0.078735 0.398678 0.13086 -0.132965 0.29861 0.070044 -0.220475 
0.255071 -0.244354 0.076352 0.260107 0.017389 0.028284 0.401961 0.250632 -0.073644 
0.345912 -0.199373 -0.194776 0.152603 0.041184 0.256445 0.298031 -0.331125 -0.067793 
0.237687 0.158641 -0.004724 0.471351 0.187992 -0.147035 0.275927 0.370057 -0.005032 
0.363881 0.207221 -0.089755 0.233802 -0.268935 0.068102 0.331373 0.353643 -0.080285 
0.236531 0.16361 0.209457 0.255395 -0.39236 -0.032742 0.156424 -0.265036 0.159158 
0.161789 -0.332293 0.114581 0.246432 -0.11527 0.055375 0.419563 0.258863 -0.16144 
0.263245 -0.341345 0.043384 0.268197 0.291882 -0.018572 0.329481 0.203826 0.039019 
0.184978 -0.215074 0.161063 0.148379 0.232178 0.151714 0.14162 -0.141972 0.237619 
0.407316 0.163353 -0.26537 0.215207 -0.242988 0.032051 0.30027 0.221017 -0.144228 
0.280718 -0.30564 -0.102658 0.308972 0.362514 -0.145686 0.3948 0.247299 -0.183909 
0.255752 0.424729 -0.135495 0.299571 0.159731 -0.228124 0.170215 -0.266478 -0.006553 
0.258678 0.104065 -0.004463 0.121606 -0.018616 0.273221 0.212638 -0.363079 -0.211848 
0.314568 0.413234 -0.052915 0.315414 -0.15536 -0.146838 0.186281 0.240888 0.081129 
0.266064 -0.406132 -0.165035 0.257139 -0.253159 -0.183403 0.318923 0.250327 -0.193412 
0.233202 0.275205 -0.055759 0.225801 -0.272054 -0.103305 0.196954 -0.377741 0.006162 
0.118696 0.196186 0.202621 0.100902 0.136694 0.245109 0.210637 0.392708 -0.163025 
0.101377 -0.194404 -0.012401 0.228257 -0.182988 -0.102827 0.092726 -0.2151 0.200831 
0.162738 -0.362393 -0.111628 0.18855 0.418446 0.006554 0.133521 -0.227223 -0.136434 
0.211856 0.334637 -0.017242 0.175301 -0.419301 -0.152386 0.008884 -0.246552 0.201005 
0.094068 -0.284925 -0.013101 0.186057 0.3025 -0.093718 -0.028456 0.000783 0.259063 
0.342286 0.10696 -0.309476 0.182777 -0.323316 -0.135829 0.01076 -0.11041 0.245084 
0.147197 -0.351015 0.027763 0.154747 0.356008 -0.133916 0.274066 0.167721 -0.308417 
0.101874 0.253081 0.034161 -0.0827 0.172113 0.197696 0.130625 0.306643 0.009367 
0.084883 0.149953 0.007323 0.17109 -0.129396 -0.171904 0.231607 0.071556 -0.30396 
0.224343 0.134983 -0.29381 -0.009638 -0.288648 0.145863 0.028283 -0.056966 0.248703 
-0.021634 0.283099 0.169024 0.062317 0.377127 0.032879 0.065033 0.286846 0.119589 
0.127467 0.454169 -0.098179 0.165385 0.485345 -0.048275 0.124157 -0.153447 -0.156856 
0.124649 -0.192285 -0.208734 0.005344 0.432895 -0.023008 0.098772 -0.355482 -0.209663 
-0.055256 -0.304491 0.073456 0.188716 -0.316312 -0.210083 0.079994 0.057354 0.031128 
0.026368 0.181974 0.003301 0.129046 -0.045776 0.042571 -0.010542 0.328739 0.092018 
-0.022361 -0.214987 -0.019862 0.047071 -0.28029 -0.130129 0.092805 0.284383 -0.053785 
-0.132432 -0.257434 0.150665 -0.09398 0.113826 0.239102 -0.136064 0.305883 0.094561 
0.025718 -0.270007 -0.177617 0.003377 -0.354377 -0.167794 0.02698 0.291876 -0.104395 
-0.068971 -0.092672 -0.006323 -0.081406 0.172571 -0.090445 -0.249341 0.032364 0.241319 
-0.140017 -0.063625 0.238541 -0.055695 0.292374 -0.120754 0.01651 0.404768 -0.088128 
-0.006507 -0.342991 -0.128768 -0.041134 0.405827 0.039651 -0.117105 0.394149 0.029737 
-0.016621 -0.31941 -0.19696 -0.24772 0.108265 0.228853 -0.054695 -0.2806 0.020648 
-0.188497 -0.18131 0.200169 -0.059371 0.411438 -0.064009 -0.198711 -0.268871 0.064302 
-0.062011 0.354291 -0.109048 -0.186361 -0.215423 -0.052126 -0.199369 0.25081 0.10284 
-0.17734 -0.133027 -0.070414 -0.066663 0.094574 -0.054684 -0.149948 -0.027759 -0.035501 
-0.232901 -0.011687 -0.090743 -0.231466 0.308033 0.091524 -0.456077 -0.049392 0.214639 
-0.211087 0.22135 -0.127422 -0.247551 -0.065617 0.232927 -0.190872 -0.260075 0.003213 
-0.358742 0.22218 0.127347 -0.163729 0.344568 -0.060153 -0.311055 -0.186105 0.162809 
-0.331082 0.220324 0.047306 -0.183414 0.133344 -0.12669 -0.381029 0.126824 0.195014 
-0.232316 0.319008 0.008265 -0.428099 0.101738 0.206247 -0.256336 0.110479 -0.116733 
-0.298786 -0.111834 -0.101495 -0.338646 0.007579 -0.085743 -0.353434 0.211433 -0.056176 
-0.312294 -0.219489 0.042836 -0.346638 0.241771 -0.021974 -0.385872 -0.146787 -0.062097 
-0.501773 -0.170608 0.100055 -0.347115 -0.195009 -0.023314 -0.552561 -0.148128 0.147407 
-0.351582 0.079308 -0.080717 -0.419346 -0.182018 -0.004448 -0.509914 0.220906 0.04557 
-0.436369 -0.138904 0.192793 -0.564798 -0.117454 0.164134 -0.454822 0.198804 0.13057 
-0.432874 0.22899 -0.019239 -0.462556 -0.021904 -0.155241 -0.53412 0.032803 0.175406 
-0.426081 0.165408 -0.07811 -0.435288 0.068013 -0.122507 -0.525485 -0.197772 -0.052369 
-0.688506 0.025075 0.064852 -0.525342 0.197131 -0.086517 -0.569196 0.130206 0.122103 
-0.488173 -0.164528 -0.1092 -0.607256 -0.12782 -0.245677 -0.587145 0.219167 -0.065493 
-0.619884 0.182437 0.038951 -0.742064 0.131433 -0.000401 -0.605449 -0.018041 -0.268144 
-0.564762 0.06984 -0.210042 -0.666426 -0.231891 -0.120743 -0.694397 0.190732 -0.050057 
-0.802582 -0.170261 -0.03644 -0.719701 0.055324 -0.077477 -0.652093 0.199954 -0.128815 
-0.716727 0.122456 -0.05858 -0.602546 -0.199716 -0.17273 -0.622503 0.019204 -0.252812 
-0.642586 -0.102546 -0.289679 -0.711612 -0.224755 -0.246119 -0.747194 -0.222787 -0.075921 
-0.817283 -0.066142 -0.012314 -0.770508 -0.248257 -0.195103 -0.796633 -0.17444 -0.134052 

POLYGONS 501 1500
OFFSETS vtktypeint64
0 3 6 9 12 15 18 21 24 
27 30 33 36 39 42 45 48 51 
54 57 60 63 66 69 72 75 78 
81 84 87 90 93 96 99 102 105 
108 111 114 117 120 123 126 129 132 
135 138 141 144 147 150 153 156 159 
162 165 168 171 174 177 180 183 186 
189 192 195 198 201 204 207 210 213 
216 219 222 225 228 231 234 237 240 
243 246 249 252 255 258 261 264 267 
270 273 276 279 282 285 288 291 294 
297 300 303 306 309 312 315 318 321 
324 327 330 333 336 339 342 345 348 
351 354 357 360 363 366 369 372 375 
378 381 384 387 390 393 396 399 402 
405 408 411 414 417 420 423 426 429 
432 435 438 441 444 447 450 453 456 
459 462 465 468 471 474 477 480 483 
486 489 492 495 498 501 504 507 510 
513 516 519 522 525 528 531 534 537 
540 543 546 549 552 555 558 561 564 
567 570 573 576 579 582 585 588 591 
594 597 600 603 606 609 612 615 618 
621 624 627 630 633 636 639 642 645 
648 651 654 657 660 663 666 669 672 
675 678 681 684 687 690 693 696 699 
702 705 708 711 714 717 720 723 726 
729 732 735 738 741 744 747 750 753 
756 759 762 765 768 771 774 777 780 
783 786 789 792 795 798 801 804 807 
810 813 816 819 822 825 828 831 834 
837 840 843 846 849 852 855 858 861 
864 867 870 873 876 879 882 885 888 
891 894 897 900 903 906 909 912 915 
918 921 924 927 930 933 936 939 942 
945 948 951 954 957 960 963 966 969 
972 975 978 981 984 987 990 993 996 
999 1002 1005 1008 1011 1014 1017 1020 1023 
1026 1029 1032 1035 1038 1041 1044 1047 1050 
1053 1056 1059 1062 1065 1068 1071 1074 1077 
1080 1083 1086 1089 1092 1095 1098 1101 1104 
1107 1110 1113 1116 1119 1122 1125 1128 1131 
1134 1137 1140 1143 1146 1149 1152 1155 1158 
1161 1164 1167 1170 1173 1176 1179 1182 1185 
1188 1191 1194 1197 1200 1203 1206 1209 1212 
1215 1218 1221 1224 1227 1230 1233 1236 1239 
1242 1245 1248 1251 1254 1257 1260 1263 1266 
1269 1272 1275 1278 1281 1284 1287 1290 1293 
1296 1299 1302 1305 1308 1311 1314 1317 1320 
1323 1326 1329 1332 1335 1338 1341 1344 1347 
1350 1353 1356 1359 1362 1365 1368 1371 1374 
1377 1380 1383 1386 1389 1392 1395 1398 1401 
1404 1407 1410 1413 1416 1419 1422 1425 1428 
1431 1434 1437 1440 1443 1446 1449 1452 1455 
1458 1461 1464 1467 1470 1473 1476 1479 1482 
1485 1488 1491 1494 1497 1500 
CONNECTIVITY vtktypeint64
70 79 103 34 36 75 1 10 9 
4 12 20 14 5 6 70 103 71 
143 71 144 23 49 30 79 30 49 
103 79 137 71 103 144 103 137 144 
96 137 79 3 7 4 0 1 3 
3 1 9 8 4 20 1 5 10 
14 6 8 23 32 49 57 49 32 
57 32 132 32 71 143 132 32 143 
49 57 132 49 96 79 49 132 96 
137 96 132 144 137 132 144 132 143 
5 0 2 2 0 3 2 3 4 
2 4 8 6 2 8 0 5 1 
6 5 2 200 183 219 230 221 234 
228 230 235 230 234 235 205 221 230 
205 230 224 205 203 221 173 203 205 
249 235 241 224 230 228 173 205 194 
173 181 203 228 235 249 220 224 228 
220 194 224 194 205 224 196 173 194 
249 220 228 196 194 219 219 220 215 
219 194 220 15 37 12 9 11 15 
125 121 152 121 142 152 64 69 66 
82 115 97 63 59 66 59 65 66 
59 52 65 177 168 180 177 163 168 
123 104 133 104 115 133 82 99 115 
77 99 82 180 169 177 123 163 177 
116 123 127 116 135 123 85 116 127 
77 90 85 151 108 150 108 102 150 
150 136 176 150 119 136 80 83 108 
130 164 136 130 126 164 114 126 130 
98 114 130 97 115 104 136 170 175 
136 164 170 91 126 114 73 160 105 
39 50 41 120 88 97 24 11 19 
104 129 120 33 52 35 35 52 59 
66 65 64 120 97 104 35 31 33 
33 31 47 15 11 24 15 24 37 
37 43 42 33 47 40 42 43 40 
40 47 55 42 40 88 40 55 88 
88 73 42 55 64 88 64 55 69 
11 13 19 13 17 19 21 37 42 
13 16 17 16 28 39 39 28 42 
28 21 42 39 42 50 42 62 50 
56 50 62 62 42 73 62 73 105 
68 62 67 105 67 62 67 105 78 
25 26 27 67 92 60 44 29 92 
81 74 91 81 91 114 74 80 91 
17 16 39 73 88 160 45 46 40 
43 45 40 43 24 45 37 24 43 
120 162 160 160 88 120 33 40 46 
162 187 189 120 129 162 72 97 88 
97 72 82 65 72 64 64 72 88 
65 52 72 52 61 72 33 51 52 
129 182 162 129 156 182 129 135 156 
116 87 135 87 90 86 41 50 54 
41 17 39 171 162 189 86 90 82 
223 208 212 223 212 231 93 51 95 
51 58 95 46 58 51 231 244 232 
232 223 231 231 227 244 231 212 227 
214 217 212 122 93 95 51 93 61 
251 247 250 238 250 247 244 238 247 
187 210 214 197 210 187 197 185 210 
197 156 185 156 145 165 87 128 145 
86 128 87 86 122 128 167 178 179 
167 161 178 147 161 167 147 149 161 
147 117 149 117 94 149 222 225 229 
222 209 225 204 209 211 156 165 185 
182 197 187 162 182 187 182 156 197 
135 145 156 100 83 89 36 35 59 
63 66 112 74 89 83 89 101 100 
100 101 113 113 98 136 100 113 119 
119 113 136 107 77 111 107 111 155 
155 111 127 77 107 99 99 107 157 
157 107 155 63 36 59 36 63 75 
63 112 75 69 34 109 34 75 109 
75 112 153 142 75 153 3 9 7 
12 7 15 4 7 12 8 20 18 
10 5 14 18 14 8 32 38 53 
53 71 32 53 70 71 135 87 145 
179 184 199 179 154 184 178 154 179 
161 148 178 178 148 154 149 148 161 
199 195 209 204 199 209 94 110 149 
84 94 117 84 44 94 84 27 44 
54 27 84 242 245 241 242 237 245 
229 237 242 226 225 216 225 209 216 
209 206 216 41 54 84 226 223 237 
226 208 223 216 208 226 241 245 246 
45 48 58 179 199 204 41 84 76 
124 151 154 148 124 154 199 184 186 
154 176 184 140 124 148 126 124 140 
199 186 195 140 138 164 138 148 149 
138 140 148 110 138 149 94 44 110 
138 141 159 209 195 206 195 202 206 
159 190 172 159 141 190 25 27 54 
237 236 245 206 208 216 202 208 206 
190 191 192 190 158 191 141 158 190 
48 17 41 211 209 222 246 247 251 
51 61 52 61 93 72 82 72 93 
82 93 86 86 93 122 232 244 247 
246 232 247 51 33 46 189 187 207 
212 207 214 236 223 232 45 58 46 
158 160 171 160 162 171 158 171 191 
189 191 171 192 191 189 192 189 207 
208 192 207 208 207 212 236 232 246 
236 246 245 19 17 48 24 19 48 
24 48 45 208 202 192 237 223 236 
233 229 242 229 226 237 229 225 226 
84 117 118 76 84 118 106 48 76 
58 48 106 48 41 76 249 241 251 
241 246 251 95 134 122 95 106 134 
95 58 106 217 213 227 212 217 227 
210 213 217 214 210 217 128 122 134 
250 248 251 238 248 250 227 238 244 
200 213 210 210 185 200 165 200 185 
128 183 165 165 145 128 193 179 204 
198 204 201 193 204 198 188 179 193 
188 167 179 201 204 211 106 146 134 
213 248 238 227 213 238 218 198 222 
198 218 221 235 234 239 234 233 239 
234 218 233 221 218 234 203 188 198 
181 188 203 166 139 181 235 239 243 
243 241 235 173 166 181 131 166 173 
174 131 173 174 173 196 183 196 219 
240 249 251 220 240 248 213 220 248 
213 215 220 213 219 215 200 219 213 
203 198 221 240 220 249 233 222 229 
222 233 218 125 152 153 10 13 11 
14 13 10 28 18 21 112 66 125 
112 125 153 31 35 36 34 31 36 
31 34 47 47 34 55 55 34 69 
69 109 66 109 121 66 121 109 142 
109 75 142 142 153 152 7 9 15 
9 10 11 21 18 20 20 12 21 
21 12 37 28 14 18 23 22 38 
32 23 38 70 53 68 26 22 23 
26 23 30 26 30 29 30 79 29 
60 79 70 89 74 81 89 81 101 
101 81 98 113 101 98 201 222 198 
211 222 201 139 167 188 139 147 167 
233 242 239 139 117 147 117 139 166 
118 117 166 243 242 241 131 118 166 
76 118 131 106 76 131 134 146 174 
146 106 131 134 174 183 128 134 183 
248 240 251 200 165 183 188 193 198 
239 242 243 181 139 188 146 131 174 
174 196 183 135 104 123 104 135 129 
90 77 82 87 116 85 90 87 85 
154 150 176 154 151 150 124 108 151 
80 108 124 184 176 186 80 124 126 
176 175 186 136 175 176 126 140 164 
126 91 80 186 175 195 170 172 175 
164 159 170 110 44 92 175 202 195 
175 172 202 170 159 172 78 158 141 
92 78 110 67 78 92 27 29 44 
27 26 29 190 192 202 172 190 202 
105 160 158 78 105 158 25 54 50 
25 50 56 164 138 159 78 141 138 
110 78 138 168 155 180 155 169 180 
81 114 98 108 100 102 169 127 177 
13 14 16 16 14 28 25 22 26 
22 25 38 25 56 38 53 38 56 
56 62 68 53 56 68 60 70 68 
60 68 67 29 79 60 92 29 60 
136 98 130 80 74 83 108 83 100 
102 100 119 150 102 119 77 85 111 
111 85 127 127 123 177 155 127 169 
99 157 115 115 157 133 163 133 157 
157 168 163 168 157 155 207 187 214 
66 121 125 123 133 163 
POINT_DATA 252
SCALARS k float
LOOKUP_TABLE default
2.24002 -0.0713664 1.31916 0.698889 0.214845 1.31171 0.23707 -0.0454608 0.142737 
-0.126765 -0.0893331 0.106802 -0.0292419 0.0422964 -0.0634944 0.0679473 0.174673 0.152706 
-0.028448 0.0714239 -0.0358418 0.250079 0.247254 0.596982 0.0590259 0.171228 0.198387 
0.471217 0.179847 0.182523 0.339211 0.312721 0.538589 0.544347 0.711892 0.48456 
0.659564 0.173349 0.149142 -1.31922 -2.41713 -0.664578 -1.14513 -1.43893 0.134344 
-0.263593 -0.839782 0.149165 0.0338093 0.682412 -2.06519 0.393026 0.357441 -0.704935 
0.264892 -0.493254 -0.186378 0.323611 -0.287651 0.395762 0.0780814 0.0485642 -1.68399 
0.683317 -0.324528 -0.743807 -1.79652 -1.01585 -0.0711943 -1.32774 -1.80183 0.183008 
-1.83222 -0.0548909 1.02699 0.616001 -0.103008 0.460829 0.0758063 -0.283588 0.135545 
1.01173 -1.27483 -0.360262 -0.108803 0.300303 0.013235 0.214606 -0.876684 1.43348 
0.514231 0.306313 -0.428111 -0.299268 -0.0883718 -0.0590875 0.265862 -1.02931 0.447891 
0.454577 -0.121432 1.01385 0.457034 0.189994 -1.61068 0.225949 0.129505 0.52624 
0.909243 -0.585829 -0.212325 1.33404 0.189982 0.604797 0.193476 0.0869038 -0.0914679 
-0.0646415 0.106451 0.326419 0.0414786 0.354824 -0.0649827 -1.86146 0.106252 1.44063 
-0.783351 0.125301 0.152938 0.107482 -0.874515 -0.0148604 0.370593 -0.984871 -0.0154197 
-1.18038 -0.602513 1.16988 -2.21082 -0.0810506 -0.829729 -0.235974 0.952876 2.29357 
1.44305 0.0216712 0.0361075 0.339094 -0.522933 -0.452431 0.0279607 0.942782 1.33956 
1.96116 -0.224968 0.147231 -0.0411556 0.155481 0.0703998 0.0390583 -0.0226332 -0.128356 
-0.248301 0.81191 -0.469926 0.0403565 0.0010885 -0.057848 1.09914 0.323398 -0.141839 
0.0485882 -0.0941061 0.00011158 -0.0132062 -0.148656 -0.18661 1.69381 0.227606 0.111107 
2.01236 0.047514 -0.114552 -0.0302302 0.282433 0.0862598 0.106709 0.0855516 0.0244622 
-0.0236665 -0.0911666 0.107383 -0.213929 0.11103 0.0950674 0.169986 0.011216 0.150987 
-0.397326 0.0153463 -0.0624017 0.369253 0.0911118 -0.0440499 -0.0656967 0.161716 0.0263801 
0.262458 -0.279307 -0.30626 -0.134787 -0.392549 -0.572411 -0.401468 0.0264736 0.995378 
-0.111687 -0.291649 0.0540825 0.0655366 -0.441755 0.11713 -0.215099 -0.0825098 0.0517305 
-0.152947 -0.0719874 -0.04742 -0.000887871 -0.0473833 0.0486504 -0.119681 0.00687289 0.0359393 
0.0221003 0.45833 0.196191 0.0790805 0.0317732 0.365273 0.568716 -0.00721431 0.780703 
0.0128255 0.00330329 0.149769 0.729873 0.767612 0.0687979 0.605266 1.48002 0.0612552 

FIELD FieldData 7
h 1 252 float
12.0186 3.8324 4.66693 6.83572 -0.309536 9.30502 0.73996 6.07486 -0.663647 
1.53126 1.06745 2.0692 2.41331 2.35884 3.05551 0.616412 -0.509275 2.02536 
-0.0617069 2.50907 -0.668307 -1.18749 5.15095 3.96673 1.09956 1.40205 3.61681 
2.85932 0.374049 2.64282 1.42711 6.6848 1.00796 1.90153 -1.17751 3.78257 
13.4701 0.615567 2.40637 0.346897 0.469693 1.78511 -2.61146 0.377123 2.29804 
1.50693 1.24705 -0.763805 2.78692 12.1236 1.57663 2.35337 2.55663 -1.33958 
1.46161 -1.96084 -1.50773 1.14138 2.5532 0.724701 -1.74431 1.90122 -2.17971 
9.11907 -3.20103 -0.674922 0.413457 -1.42291 -2.8726 -2.21081 -2.74093 -4.29015 
2.58786 -1.91984 -0.772775 1.79194 2.43192 3.31741 -0.728558 1.28613 1.28373 
4.21251 1.61829 0.517928 2.42176 2.23364 2.09677 2.56079 -1.97602 2.41174 
2.23077 5.53404 0.20183 2.23679 1.90085 2.60561 0.0973476 -2.28771 -2.30109 
-1.07389 3.52018 1.76443 9.79949 0.454297 -3.39932 -1.16568 2.53373 -0.0205545 
4.15476 -3.62438 2.19507 4.47014 0.0279643 0.364214 4.48474 -2.22847 2.22025 
2.05701 2.09944 1.06382 -1.53319 -2.29589 2.32673 0.785725 0.619417 1.05082 
1.62485 -0.315044 2.46899 0.461675 -3.86313 2.06838 0.122335 0.383566 2.38143 
3.74117 -0.0508129 -0.990903 2.32437 1.5321 0.160563 -0.967245 -0.803329 -0.598429 
0.11505 1.87135 2.16042 1.91051 1.20627 1.87267 2.92499 2.74876 0.603371 
8.01621 2.80259 8.41146 2.81982 -1.73704 -1.34678 -1.21603 -1.76089 1.44736 
-1.04293 -2.79022 -1.39569 1.91091 1.82662 1.32584 -1.04928 -0.85145 -0.856473 
-1.07735 -0.22053 1.95757 2.12639 -0.107674 0.604388 0.536109 1.48372 3.18539 
1.40184 1.73992 2.50857 2.28896 7.22146 1.53756 1.70957 0.972954 1.2322 
-0.511571 -0.249325 -0.359798 0.10733 2.0546 2.43804 1.5245 2.20529 4.53236 
2.41498 6.10665 1.43222 2.095 0.27958 1.9109 3.30925 2.22445 0.891084 
0.188717 -0.0983568 1.81402 2.97537 2.83544 0.00779779 1.51086 1.0129 1.83291 
0.121567 3.89661 3.65807 2.42065 2.86517 2.31031 3.31385 -0.0734195 2.55245 
0.924933 0.444327 4.19242 2.65405 1.56319 2.55041 0.423979 -0.662036 4.31227 
3.64759 3.94826 -0.360907 1.63881 1.67657 4.88556 2.85552 4.72762 3.7123 
4.72753 2.28988 1.75766 1.08272 1.63161 2.71061 4.9321 2.95366 1.74519 

kmin 1 252 float
22.673 7.6687 9.53546 13.6845 1.07496 19.6687 2.24586 12.4372 -0.143011 
3.05349 1.98599 3.59369 6.20379 4.18152 6.77269 2.44944 1.98279 3.33196 
0.117748 4.18114 0.416356 -0.581615 9.18014 8.05667 2.33648 2.39351 4.56954 
3.99065 1.42813 4.69099 3.68685 9.88497 2.96053 2.22769 -0.291478 4.64921 
17.9436 2.36241 3.28468 1.67861 3.73495 2.85416 -1.04983 0.98133 3.89785 
2.34477 1.69365 -0.107406 4.58416 18.7471 2.33221 3.61367 3.79946 0.0187834 
1.97726 -0.654199 -0.923926 2.53452 4.18641 1.89636 -0.519522 3.00579 -0.95343 
13.7777 -0.598544 1.08265 1.68543 -1.1808 0.226706 -0.464589 -1.84701 -1.69784 
3.96959 -0.679303 1.8299 3.64442 3.77966 7.05787 -0.615807 4.24869 2.84058 
11.9052 2.1618 1.83834 3.69105 3.7908 2.82066 4.38161 -0.849026 6.31217 
2.28806 10.3068 0.974127 3.47276 2.73319 4.24862 0.927183 -1.16409 2.22366 
1.0962 7.08127 4.35345 18.1435 1.2715 -0.79019 -0.750216 4.05961 0.391728 
5.1723 -2.27698 3.48818 6.40971 1.25719 2.08671 11.619 -0.0080189 4.21332 
2.96365 3.03122 2.6547 -0.649846 1.07785 3.67419 2.10752 1.44496 1.82323 
5.2871 0.0925729 3.96171 1.57264 -2.78617 3.08861 1.40322 2.64123 3.87203 
7.97049 1.03416 -0.959968 4.77715 2.08567 0.670036 -0.750885 0.322443 -0.00845754 
1.09531 3.10375 3.45342 2.4588 1.40478 2.57592 5.71056 4.08416 3.65306 
16.4627 4.14643 11.3514 4.69283 -1.22494 -0.910399 -0.783967 -0.810503 1.60692 
-0.479467 -1.38695 -0.26196 3.18327 2.57381 1.72675 -0.107205 -0.672379 -0.560663 
-0.549705 -0.0381337 2.93451 3.37637 0.344453 1.76574 0.790477 1.5923 5.30223 
3.03471 2.53538 5.01589 3.75196 14.3849 2.74532 4.08166 1.80416 1.67961 
-0.122902 -0.0781032 -0.167783 0.488944 3.11301 3.857 3.2091 3.62672 9.43669 
4.06529 12.8255 2.1999 4.01852 0.615987 2.93953 6.27751 3.40863 1.92803 
0.54479 0.282623 4.22417 5.89875 5.49029 0.403229 3.25715 2.24402 3.32583 
0.991096 8.62292 6.73186 4.03569 4.80406 3.60298 6.41265 0.60019 3.87398 
2.55475 1.45404 8.43932 4.23766 3.45098 3.85884 1.61897 0.383759 8.29513 
6.17196 5.73233 0.741819 3.84322 3.54657 8.76762 5.06267 9.04816 6.9989 
7.93778 6.13566 3.49223 2.32448 4.20797 5.282 6.8979 6.26655 4.2411 

kmax 1 252 float
1.36434 -0.00390432 -0.201605 -0.0130467 -1.69404 -1.05864 -0.765935 -0.287478 -1.18428 
0.0090395 0.148911 0.544698 -1.37716 0.536161 -0.661667 -1.21662 -3.00134 0.718767 
-0.241162 0.836988 -1.75297 -1.79336 1.12175 -0.123208 -0.137365 0.410587 2.66409 
1.72798 -0.680036 0.594658 -0.832632 3.48463 -0.944608 1.57537 -2.06355 2.91593 
8.99656 -1.13127 1.52805 -0.984816 -2.79556 0.716066 -4.17308 -0.227084 0.698225 
0.669101 0.800442 -1.4202 0.98968 5.50002 0.821053 1.09306 1.3138 -2.69795 
0.945971 -3.26749 -2.09153 -0.251765 0.919992 -0.446955 -2.9691 0.796656 -3.40599 
4.46045 -5.80352 -2.43249 -0.858514 -1.66502 -5.9719 -3.95703 -3.63485 -6.88247 
1.20614 -3.16037 -3.37545 -0.0605465 1.08418 -0.423053 -0.841309 -1.67642 -0.273107 
-3.48019 1.07478 -0.802484 1.15247 0.676491 1.37289 0.739967 -3.10302 -1.4887 
2.17347 0.761302 -0.570466 1.00082 1.0685 0.962607 -0.732488 -3.41133 -6.82583 
-3.24398 -0.0408978 -0.824596 1.45552 -0.362906 -6.00844 -1.58115 1.00785 -0.432837 
3.13723 -4.97178 0.901948 2.53057 -1.20126 -1.35828 -2.64957 -4.44891 0.227185 
1.15037 1.16765 -0.527066 -2.41653 -5.66963 0.979272 -0.536066 -0.206128 0.278412 
-2.03739 -0.722661 0.976259 -0.649287 -4.94009 1.04815 -1.15855 -1.8741 0.890824 
-0.488141 -1.13578 -1.02184 -0.128417 0.978529 -0.348909 -1.1836 -1.9291 -1.1884 
-0.865212 0.638947 0.867416 1.36222 1.00777 1.16943 0.139424 1.41337 -2.44632 
-0.430279 1.45875 5.4715 0.946806 -2.24913 -1.78316 -1.64809 -2.71128 1.2878 
-1.60639 -4.19348 -2.52943 0.638554 1.07943 0.924936 -1.99136 -1.03052 -1.15228 
-1.60499 -0.402927 0.980624 0.876403 -0.559801 -0.556965 0.28174 1.37514 1.06854 
-0.231022 0.944467 0.00125235 0.825972 0.0580485 0.329795 -0.66251 0.141744 0.784791 
-0.90024 -0.420547 -0.551812 -0.274284 0.996199 1.01908 -0.1601 0.783855 -0.37198 
0.764677 -0.612157 0.664547 0.171488 -0.0568273 0.882269 0.340978 1.04027 -0.14586 
-0.167356 -0.479336 -0.596124 0.0519913 0.180591 -0.387634 -0.235429 -0.218216 0.339983 
-0.747963 -0.829691 0.584279 0.805601 0.926283 1.01763 0.215056 -0.747029 1.23092 
-0.704883 -0.565387 -0.0544744 1.07044 -0.324602 1.24197 -0.771017 -1.70783 0.329416 
1.12323 2.16419 -1.46363 -0.565603 -0.193442 1.00351 0.64837 0.407072 0.425692 
1.51728 -1.5559 0.0230892 -0.15905 -0.944759 0.139222 2.9663 -0.359227 -0.750726 

hks 16 252 double
0.67077702417 0.677578411 0.68438999492 0.69120977517 0.69803584311 0.70486630772 0.71169921912 0.71853249183 0.72536382994 
0.73219065588 0.73901004458 0.74581866451 0.75261272677 0.75938794328 0.76613949489 0.77286200987 0.63306780591 0.63985400419 
0.64668666277 0.65356236153 0.66047750109 0.66742824931 0.67441048934 0.6814197711 0.68845126758 0.69549973746 0.70255949518 
0.70962438939 0.71668779039 0.72374258679 0.73078119169 0.73779555778 0.6420865328 0.64949677686 0.65689808684 0.66428747695 
0.67166208697 0.67901912779 0.68635582497 0.69366936163 0.70095682203 0.708215137 0.71544103232 0.72263098119 0.72978116155 
0.73688741916 0.74394523705 0.75094971183 0.62381127362 0.63137100903 0.63894301312 0.64652172744 0.65410173697 0.66167774308 
0.66924453158 0.67679693693 0.68432980385 0.69183794762 0.69931611422 0.70675894171 0.71416092387 0.72151637733 0.72881941297 
0.73606391255 0.55223417086 0.5597321674 0.56727895869 0.57486667068 0.5824873434 0.59013293606 0.59779533092 0.60546633617 
0.61313768898 0.62080105882 0.62844805206 0.63607021788 0.64365905615 0.65120602724 0.65870256392 0.66614008532 0.62188541333 
0.62903312779 0.6362003825 0.64338426017 0.6505817617 0.65778974632 0.66500487337 0.67222354733 0.67944186779 0.68665558544 
0.69386006543 0.7010502587 0.70822068194 0.71536540652 0.72247805629 0.72955181423 0.62087081368 0.62671779865 0.6326787115 
0.63874690927 0.64491547512 0.65117720485 0.6575245919 0.66394981204 0.67044470936 0.67700078485 0.68360918883 0.6902607183 
0.69694582004 0.70365460007 0.71037683975 0.71710201863 0.52526142233 0.53167873133 0.53820771357 0.54484201748 0.5515746372 
0.55839792145 0.56530358972 0.57228275629 0.57932596193 0.58642321333 0.59356402992 0.60073749748 0.60793232803 0.61513692484 
0.62233945169 0.62952790511 0.55192295026 0.55848582609 0.56513158094 0.5718550857 0.5786506919 0.5855122253 0.59243298579 
0.59940575387 0.60642280417 0.61347592593 0.62055645047 0.62765528529 0.63476295437 0.64186964406 0.64896525367 0.65603944996 
0.53587999638 0.54217269584 0.54857660195 0.55508737663 0.56169990092 0.56840825365 0.57520570257 0.58208470847 0.58903694265 
0.5960533177 0.60312403116 0.61023862116 0.61738603297 0.62455469489 0.63173260183 0.63890740466 0.51426817721 0.52053602835 
0.52694946909 0.53349969085 0.54017722693 0.54697197673 0.55387323586 0.56086973283 0.56794967252 0.57510078667 0.5823103912 
0.58956544996 0.59685264423 0.60415844699 0.61146920071 0.61877119737 0.39595358832 0.3990984593 0.40240848185 0.40588652705 
0.40953403287 0.41335095232 0.41733572608 0.42148527986 0.42579504642 0.43025901159 0.43486978276 0.43961867825 0.44449583518 
0.44949033301 0.45459033012 0.45978320981 0.43842296104 0.44260436024 0.44694462446 0.45144530414 0.45610641493 0.46092638765 
0.46590204728 0.47102862149 0.47629977823 0.48170769135 0.48724313214 0.49289558444 0.49865337987 0.50450384981 0.51043348992 
0.51642813321 0.3714548563 0.37369706642 0.37611700445 0.37871809117 0.38150235486 0.38447037119 0.38762122703 0.39095250913 
0.39446031784 0.39813930524 0.40198273665 0.40598257374 0.41012957699 0.41441342477 0.41882284605 0.42334576345 0.45335721122 
0.45950774951 0.46575655519 0.47209921085 0.47853061117 0.48504494701 0.49163570124 0.49829565703 0.50501691869 0.51179094502 
0.51860859459 0.52546018185 0.53233554312 0.53922411068 0.54611499327 0.55299706117 0.41748440941 0.42049015195 0.42367886739 
0.42705375649 0.4306166412 0.43436785565 0.43830616486 0.44242871364 0.44673100748 0.45120692577 0.45584876714 0.46064732536 
0.46559199357 0.47067089347 0.47587102597 0.4811784386 0.3304061677 0.3305935434 0.33094922758 0.33148324298 0.33220417132 
0.33311903219 0.33423318794 0.3355502763 0.33707217198 0.33879897766 0.34072904407 0.34285901838 0.34518391906 0.34769723505 
0.35039104649 0.35325616372 0.26806683256 0.26638355875 0.26480051525 0.26332894778 0.26197951898 0.26076217925 0.25968604655 
0.25875929764 0.25798907297 0.2573813974 0.25694111818 0.25667186156 0.25657600879 0.25665469179 0.25690780825 0.2573340556 
0.43253221182 0.43672330709 0.44106384965 0.44555458006 0.45019496913 0.4549831635 0.45991595438 0.4649887704 0.47019569479 
0.47552950686 0.4809817465 0.48654280021 0.49220200643 0.49794777743 0.50376773459 0.50964885372 0.29814468889 0.29789032837 
0.29774646683 0.29772220962 0.29782595342 0.29806526782 0.29844678852 0.29897612454 0.29965778118 0.30049510065 0.30149022114 
0.30264405545 0.30395628912 0.30542539802 0.3070486847 0.30882233223 0.47284372417 0.47779966235 0.48290412182 0.48815461108 
0.49354756122 0.49907829051 0.504740988 0.51052871693 0.51643343871 0.52244605725 0.5285564828 0.53475371406 0.54102593645 
0.54736063425 0.55374471365 0.56016463365 0.34952664835 0.35096286113 0.35259000319 0.35441359634 0.35643767942 0.35866470715 
0.36109547718 0.36372908744 0.36656292482 0.36959268576 0.37281242793 0.37621465154 0.37979040791 0.38352943222 0.3874202966 
0.39145057946 0.39498711806 0.39570244036 0.39658861122 0.39765386263 0.39890499332 0.40034726492 0.40198432291 0.40381814353 
0.40584900757 0.40807550064 0.4104945397 0.41310142412 0.4158899097 0.41885230303 0.42197957351 0.42526147983 0.43246751331 
0.43776665549 0.44320759565 0.44878399081 0.45448854884 0.46031306786 0.46624848786 0.47228495358 0.47841188721 0.4846180694 
0.49089172684 0.49722062431 0.50359215952 0.50999345853 0.5164114699 0.52283305581 0.2733267188 0.27290822547 0.27259455086 
0.27239461755 0.27231667576 0.27236820317 0.27255581457 0.27288518301 0.27336097423 0.27398679552 0.27476516025 0.27569746876 
0.27678400609 0.27802395649 0.27941543448 0.28095553159 0.31346019262 0.31200617157 0.31063537571 0.3093614136 0.3081972551 
0.30715507005 0.30624607986 0.30548042492 0.30486704999 0.30441360953 0.30412639438 0.30401028039 0.30406869945 0.3043036325 