# vtk DataFile Version 5.1
vtk output
ASCII
DATASET POLYDATA
POINTS 252 float
0.771946 0.398227 -0.050638 0.711886 0.302496 -0.103003 0.680364 0.396424 -0.029891 
0.739604 0.373341 -0.01179 0.641442 0.26477 -0.235893 0.716697 0.432949 -0.079411 
0.639756 0.327664 -0.230099 0.61224 0.320877 -0.095883 0.671243 0.324994 -0.057813 
0.535339 0.333111 -0.198649 0.584582 -0.280088 -0.37508 0.589514 -0.328227 -0.419389 
0.584782 0.220983 -0.203926 0.603026 -0.29278 -0.187029 0.649225 0.40998 -0.108639 
0.607697 -0.353624 -0.263509 0.579835 0.335884 -0.254323 0.54786 0.307424 -0.162017 
0.544882 -0.24384 -0.25024 0.556657 -0.31231 -0.489899 0.527749 -0.282085 -0.470632 
0.520088 -0.318199 -0.105003 0.560648 -0.367833 -0.473823 0.562538 -0.234975 -0.191283 
0.504674 0.249207 -0.109439 0.428817 0.291909 -0.222848 0.510528 -0.389702 -0.416386 
0.481277 0.17681 -0.125617 0.587799 0.016523 0.203227 0.481211 -0.361497 -0.330485 
0.534122 0.280983 -0.280656 0.486535 -0.33376 -0.500567 0.56769 -0.042475 0.240033 
0.491226 -0.282106 -0.330416 0.557134 -0.392628 -0.262537 0.529974 0.082465 0.119913 
0.534508 0.191881 -0.238448 0.475357 -0.30786 -0.261753 0.461393 -0.195478 -0.181883 
0.5271 -0.361498 -0.145019 0.491363 -0.118765 0.355806 0.421291 0.189791 -0.227242 
0.46242 0.063442 0.01282 0.4939 0.104926 0.189234 0.546357 0.072411 0.25668 
0.517649 -0.236558 -0.113486 0.521167 -0.026404 0.10347 0.546763 0.008755 0.312471 
0.390768 -0.134784 -0.093443 0.36261 0.258243 -0.043241 0.385122 -0.300286 -0.197354 
0.439618 0.017596 -0.01681 0.479725 -0.370038 -0.189781 0.449314 0.315314 -0.164643 
0.503626 -0.100804 0.283455 0.405714 0.184815 -0.061189 0.420865 0.096767 0.030876 
0.392443 -0.318351 -0.105979 0.517156 -0.056087 0.208934 0.457814 -0.047044 0.205382 
0.490333 0.071792 0.275487 0.38422 0.101685 0.107166 0.341263 0.156373 -0.091191 
0.345853 0.107854 0.050253 0.354318 -0.031721 0.065747 0.373643 -0.21632 -0.040038 
0.286439 -0.240842 -0.168582 0.404636 -0.146978 0.320904 0.338547 0.222489 -0.178806 
0.406797 -0.204526 0.39077 0.297992 -0.09591 -0.115899 0.452491 -0.072404 0.410042 
0.300756 0.13809 0.020347 0.360233 -0.221089 -0.203381 0.370218 0.091832 -0.087204 
0.386198 -0.020266 -0.037081 0.367413 0.140838 -0.047816 0.315533 0.268238 -0.087004 
0.403189 0.024279 0.206628 0.362282 -0.138077 0.459669 0.324936 0.074595 0.087948 
0.34465 -0.263034 -0.038964 0.289241 -0.057949 0.026483 0.34758 -0.103981 -0.061751 
0.250845 0.2047 -0.129019 0.379192 -0.093624 0.324137 0.38441 -0.047085 0.344197 
0.252961 0.242037 0.024913 0.400607 -0.169258 0.444647 0.305919 0.483712 0.100001 
0.353877 -0.109322 -0.019195 0.281414 0.31658 0.004437 0.324236 0.036047 0.086309 
0.293453 0.552086 0.200566 0.362262 -0.188764 0.403532 0.247167 0.398411 -0.002631 
0.290002 -0.180548 0.034765 0.260789 0.56696 0.128507 0.294578 0.499157 0.211141 
0.256836 0.338268 0.036494 0.257354 0.134864 -0.101699 0.314299 -0.294163 -0.110413 
0.305751 -0.31854 0.303459 0.207761 -0.203033 0.052307 0.251482 0.369586 0.087064 
0.219287 0.510371 0.330064 0.252474 0.584618 0.328753 0.281695 -0.16447 -0.142276 
0.241816 0.462027 0.007235 0.235657 -0.34012 0.215226 0.180365 0.46773 -0.001517 
0.220769 0.595187 0.231368 0.195978 -0.224296 -0.134697 0.286522 -0.268253 0.351336 
0.219689 0.027525 0.088592 0.147071 -0.14076 -0.154203 0.197776 0.524122 0.088213 
0.171508 0.365116 -0.071098 0.054536 0.26939 -0.117822 0.195247 0.486375 0.176029 
0.272184 0.013833 -0.158449 0.189957 0.281438 -0.071212 0.177706 0.206745 0.059063 
0.172613 0.344157 0.067176 0.18275 0.562487 0.211202 0.217103 0.572809 0.393506 
0.170463 0.553073 0.327747 0.156647 0.475579 0.104139 0.188519 0.10567 0.053315 
0.169497 -0.035575 0.051346 0.181729 0.618652 0.350016 0.244224 -0.254878 0.27717 
0.112893 0.380347 0.050522 0.16804 0.017827 -0.179501 0.104641 0.134427 -0.159758 
0.161652 -0.443912 0.316133 0.198314 -0.424415 0.281585 0.135037 -0.23335 0.02739 
0.16712 -0.318445 0.206169 0.092899 0.297928 0.098352 0.168161 -0.262082 0.331303 
0.129401 -0.388421 0.191467 0.109706 -0.240563 -0.008678 0.019167 0.127808 -0.173518 
0.063984 -0.121033 -0.15824 0.102632 -0.170674 0.099088 0.143553 -0.458613 0.223721 
0.263244 -0.325477 0.368507 -0.05582 0.117438 0.058875 0.061835 0.211912 0.085074 
0.140204 -0.327106 0.367071 0.074338 0.357692 -0.06246 -0.021325 0.300486 0.061203 
0.073159 -0.327432 0.231927 0.078868 0.386215 0.017075 0.034272 -0.349814 0.021565 
-0.051437 0.248645 -0.136073 0.071145 -0.297576 0.054475 0.074661 -0.212727 -0.076057 
0.00934 -0.159067 -0.130254 0.06336 -0.349773 0.134346 -0.043033 0.235523 0.09313 
-0.027003 0.320761 -0.012774 -0.00525 -0.301173 -0.066023 0.013794 -0.433151 0.128762 
-0.025823 -0.282251 0.128364 0.040629 -0.198164 0.093459 -0.107282 -0.182292 0.167971 
-0.036086 -0.323832 0.219193 0.073202 -0.415904 0.334876 -0.081648 -0.442793 0.05473 
-0.128858 -0.199953 -0.105037 -0.138468 -0.098832 -0.193444 0.042261 -0.345861 0.305345 
-0.148058 0.285297 0.054754 0.062575 -0.495761 0.249488 -0.075997 -0.381304 0.221621 
-0.034731 -0.008307 0.064651 -0.201375 0.064388 -0.214455 -0.078425 -0.004045 -0.198843 
-0.029666 -0.114567 0.109429 -0.079587 -0.34276 -0.026654 -0.186413 0.305883 -0.032318 
-0.12124 -0.303764 0.191596 -0.166507 -0.43838 0.101978 -0.059807 -0.462685 0.199019 
-0.192661 0.049596 0.078308 -0.121979 -0.429095 0.027993 -0.340749 -0.108939 -0.203205 
-0.243172 -0.01894 -0.223162 -0.211616 -0.193729 0.175595 -0.206522 -0.337178 -0.015229 
-0.164856 -0.374673 0.170112 -0.237963 -0.314258 0.083771 -0.219561 -0.264291 0.154325 
-0.244695 0.225541 -0.150713 -0.257407 0.224913 0.080919 -0.194413 -0.236958 -0.06885 
-0.228589 0.150997 0.102426 -0.290816 0.15227 -0.199048 -0.299355 0.014561 0.114956 
-0.242126 -0.080793 0.154457 -0.363828 0.184719 -0.177874 -0.259609 -0.279063 -0.071185 
-0.328558 0.241586 -0.050263 -0.294392 -0.284539 0.033572 -0.323889 -0.048307 0.117415 
-0.341185 0.1319 0.112325 -0.366566 -0.21538 0.07956 -0.379824 -0.062488 -0.229528 
-0.342577 0.213658 0.056754 -0.340462 -0.217322 -0.033584 -0.309903 -0.14919 0.144671 
-0.407101 0.104576 -0.233501 -0.413576 -0.217138 0.01993 -0.470512 0.194704 -0.104107 
-0.504853 -0.121466 -0.194949 -0.397751 -0.10303 0.073787 -0.525261 0.108234 -0.227414 
-0.390272 0.023331 0.090733 -0.441013 0.197313 0.016213 -0.519383 0.161411 -0.207029 
-0.603109 -0.17858 -0.122413 -0.503117 -0.009409 -0.223713 -0.429427 0.155423 0.052322 
-0.38964 -0.208997 -0.13434 -0.529784 -0.142608 0.05771 -0.552132 0.199488 0.049007 
-0.601923 -0.207178 0.014991 -0.617201 0.207842 -0.107998 -0.534847 0.089073 0.102587 
-0.69692 -0.154375 0.096828 -0.720963 -0.063461 -0.146534 -0.654065 0.100903 0.150378 
-0.525246 -0.217448 -0.064653 -0.710086 -0.201651 0.019299 -0.56831 -0.026408 0.127846 
-0.733123 -0.171691 -0.08837 -0.725905 0.021197 0.187495 -0.674295 0.158807 -0.154968 
-0.71016 0.192892 0.127367 -0.778767 -0.056752 -0.111167 -0.673793 0.101509 -0.177088 
-0.774355 0.146601 0.167529 -0.801133 0.240083 0.108878 -0.819693 0.03204 -0.13614 
-0.851164 0.177713 -0.000609 -0.873164 0.147345 -0.110133 -0.850891 0.263041 0.051796 
-0.828843 0.215197 -0.075349 -0.881002 0.228138 -0.037843 -0.734329 0.24816 0.013724 

POLYGONS 501 1500
OFFSETS vtktypeint64
0 3 6 9 12 15 18 21 24 
27 30 33 36 39 42 45 48 51 
54 57 60 63 66 69 72 75 78 
81 84 87 90 93 96 99 102 105 
108 111 114 117 120 123 126 129 132 
135 138 141 144 147 150 153 156 159 
162 165 168 171 174 177 180 183 186 
189 192 195 198 201 204 207 210 213 
216 219 222 225 228 231 234 237 240 
243 246 249 252 255 258 261 264 267 
270 273 276 279 282 285 288 291 294 
297 300 303 306 309 312 315 318 321 
324 327 330 333 336 339 342 345 348 
351 354 357 360 363 366 369 372 375 
378 381 384 387 390 393 396 399 402 
405 408 411 414 417 420 423 426 429 
432 435 438 441 444 447 450 453 456 
459 462 465 468 471 474 477 480 483 
486 489 492 495 498 501 504 507 510 
513 516 519 522 525 528 531 534 537 
540 543 546 549 552 555 558 561 564 
567 570 573 576 579 582 585 588 591 
594 597 600 603 606 609 612 615 618 
621 624 627 630 633 636 639 642 645 
648 651 654 657 660 663 666 669 672 
675 678 681 684 687 690 693 696 699 
702 705 708 711 714 717 720 723 726 
729 732 735 738 741 744 747 750 753 
756 759 762 765 768 771 774 777 780 
783 786 789 792 795 798 801 804 807 
810 813 816 819 822 825 828 831 834 
837 840 843 846 849 852 855 858 861 
864 867 870 873 876 879 882 885 888 
891 894 897 900 903 906 909 912 915 
918 921 924 927 930 933 936 939 942 
945 948 951 954 957 960 963 966 969 
972 975 978 981 984 987 990 993 996 
999 1002 1005 1008 1011 1014 1017 1020 1023 
1026 1029 1032 1035 1038 1041 1044 1047 1050 
1053 1056 1059 1062 1065 1068 1071 1074 1077 
1080 1083 1086 1089 1092 1095 1098 1101 1104 
1107 1110 1113 1116 1119 1122 1125 1128 1131 
1134 1137 1140 1143 1146 1149 1152 1155 1158 
1161 1164 1167 1170 1173 1176 1179 1182 1185 
1188 1191 1194 1197 1200 1203 1206 1209 1212 
1215 1218 1221 1224 1227 1230 1233 1236 1239 
1242 1245 1248 1251 1254 1257 1260 1263 1266 
1269 1272 1275 1278 1281 1284 1287 1290 1293 
1296 1299 1302 1305 1308 1311 1314 1317 1320 
1323 1326 1329 1332 1335 1338 1341 1344 1347 
1350 1353 1356 1359 1362 1365 1368 1371 1374 
1377 1380 1383 1386 1389 1392 1395 1398 1401 
1404 1407 1410 1413 1416 1419 1422 1425 1428 
1431 1434 1437 1440 1443 1446 1449 1452 1455 
1458 1461 1464 1467 1470 1473 1476 1479 1482 
1485 1488 1491 1494 1497 1500 
CONNECTIVITY vtktypeint64
75 46 64 167 201 190 92 78 80 
78 92 64 58 59 64 46 58 64 
64 59 78 167 190 183 83 75 90 
153 160 165 153 165 168 168 165 183 
168 183 176 192 176 183 141 109 146 
138 109 141 141 146 164 138 141 153 
153 141 160 146 175 164 175 169 185 
93 89 97 97 89 108 97 116 111 
124 116 127 119 124 127 104 89 98 
98 119 123 123 119 127 104 98 123 
44 35 43 43 61 60 60 61 78 
78 61 80 46 28 32 32 58 46 
249 242 247 221 218 239 218 242 239 
218 223 242 202 213 221 199 213 202 
199 178 213 199 156 178 26 34 29 
33 29 37 11 10 15 23 10 18 
13 15 10 209 216 223 209 188 216 
213 209 223 213 223 218 213 218 221 
22 34 26 22 15 34 11 15 22 
33 31 29 18 20 33 18 10 20 
31 26 29 22 26 31 11 22 19 
20 31 33 19 22 31 20 19 31 
10 19 20 11 19 10 245 246 247 
195 199 202 156 199 195 30 36 41 
4 36 30 4 12 36 246 250 247 
250 249 247 229 239 249 251 229 249 
221 239 229 229 215 221 215 202 221 
204 202 215 182 156 195 41 68 25 
25 30 41 16 25 9 6 4 30 
25 16 30 16 6 30 52 34 39 
34 15 39 73 37 50 50 37 52 
29 52 37 29 34 52 66 73 50 
38 18 73 18 37 73 18 33 37 
249 239 242 233 240 243 230 227 233 
207 210 224 207 198 210 198 196 210 
32 40 54 102 147 136 136 147 135 
147 150 169 169 150 173 135 147 169 
98 93 106 93 111 106 130 111 124 
130 124 126 98 106 105 47 44 60 
32 47 40 71 40 47 47 60 71 
86 85 79 85 94 79 54 40 69 
67 54 69 67 69 94 94 69 88 
85 67 94 147 113 140 150 147 140 
106 111 130 105 125 126 125 130 126 
105 106 125 71 60 86 79 71 86 
88 40 71 72 114 92 40 88 69 
88 79 94 198 161 196 148 149 161 
128 87 122 128 72 87 72 49 87 
174 182 196 161 174 196 161 152 174 
152 162 174 139 152 161 99 91 121 
87 91 99 49 91 87 77 91 49 
8 2 7 1 3 8 1 0 3 
152 154 162 132 154 152 116 154 132 
108 117 110 108 95 117 95 99 121 
99 95 104 2 5 14 116 110 154 
170 185 184 191 184 193 227 240 233 
230 224 227 55 49 72 154 110 151 
227 229 251 220 229 227 215 229 220 
204 215 220 182 195 204 162 156 182 
53 25 77 53 9 25 17 9 53 
7 9 17 16 9 14 14 6 16 
50 52 101 52 57 101 52 39 57 
39 13 21 15 13 39 203 197 191 
171 163 181 158 163 159 66 101 112 
66 50 101 13 23 45 21 13 45 
235 234 228 225 214 234 171 181 197 
204 195 202 187 184 191 170 184 187 
170 155 164 157 164 155 99 123 87 
42 46 51 166 167 165 183 165 167 
183 190 194 164 157 160 157 165 160 
192 183 194 184 192 193 192 194 193 
141 164 160 185 176 192 184 185 192 
164 175 185 170 164 185 97 108 110 
110 116 97 108 89 95 127 116 132 
0 5 3 3 5 2 3 2 8 
95 89 104 123 127 132 139 132 152 
99 104 123 87 123 139 123 132 139 
149 139 161 122 87 139 122 139 149 
43 35 61 35 42 56 35 56 61 
61 63 80 92 80 72 35 28 42 
28 46 42 155 137 157 88 71 79 
125 106 130 193 208 205 193 194 208 
163 137 155 142 137 163 137 103 145 
101 103 137 81 103 101 81 96 103 
214 208 226 205 208 214 65 96 81 
236 238 231 226 236 231 208 217 226 
206 219 217 208 206 217 96 90 82 
65 90 96 48 83 90 75 64 90 
226 217 236 23 13 10 197 203 225 
222 237 216 222 225 234 216 225 222 
188 225 216 188 197 225 188 171 197 
172 171 188 232 241 245 232 237 241 
232 216 237 209 189 188 189 172 188 
179 172 189 223 232 242 223 216 232 
178 179 189 143 179 178 232 245 242 
213 178 189 247 242 245 189 209 213 
150 140 173 140 113 131 113 102 131 
85 58 67 67 58 54 58 32 54 
118 143 156 48 45 38 25 68 77 
248 251 249 246 248 250 250 248 249 
4 1 12 12 7 17 12 17 24 
12 27 36 84 68 62 84 77 68 
121 77 84 84 134 118 84 118 121 
118 134 143 245 243 246 36 27 62 
41 36 62 27 76 62 41 62 68 
74 120 100 84 62 100 100 134 84 
241 243 245 100 120 134 231 238 241 
65 48 90 75 83 70 48 107 83 
83 107 70 231 228 226 235 228 231 
45 48 65 59 85 86 32 28 47 
86 60 78 47 28 44 43 60 44 
119 105 126 98 105 119 89 93 98 
119 126 124 111 116 124 93 97 111 
146 135 175 146 136 135 109 136 146 
169 176 185 173 168 176 169 173 176 
102 136 109 173 153 168 140 153 173 
140 131 153 131 138 153 131 109 138 
102 109 131 59 58 85 28 35 44 
175 135 169 0 4 6 0 1 4 
151 156 162 154 151 162 117 118 151 
110 117 151 117 95 121 2 14 9 
7 2 9 5 6 14 5 0 6 
170 187 181 181 191 197 181 187 191 
181 155 170 163 155 181 21 81 57 
39 21 57 203 193 205 191 193 203 
142 163 158 101 137 142 142 112 101 
57 81 101 21 65 81 21 45 65 
234 214 228 214 226 228 211 205 214 
211 203 205 211 214 225 203 211 225 
206 200 219 137 145 157 165 157 166 
129 148 177 75 51 46 82 64 92 
82 92 114 82 114 129 180 177 186 
167 186 201 206 201 200 90 64 82 
96 82 129 145 103 129 145 129 180 
129 177 180 180 186 167 212 201 206 
190 201 212 208 212 206 96 129 103 
166 145 180 166 180 167 194 190 208 
208 190 212 157 145 166 159 163 171 
144 158 159 115 112 158 112 142 158 
66 112 115 70 107 115 107 66 115 
107 73 66 48 73 107 48 38 73 
23 18 38 45 23 38 235 231 241 
237 235 241 234 235 237 222 234 237 
159 171 172 159 172 144 115 158 144 
133 115 144 133 70 115 133 144 179 
120 70 133 143 133 179 134 133 143 
156 143 178 134 120 133 144 172 179 
236 233 238 236 230 233 219 230 236 
217 219 236 200 207 219 200 198 207 
186 200 201 186 198 200 148 186 177 
129 128 148 114 72 128 74 76 63 
61 56 63 56 74 63 56 42 74 
238 233 243 241 238 243 219 224 230 
219 207 224 148 198 186 148 161 198 
128 149 148 128 122 149 102 113 147 
55 72 63 240 244 243 76 55 63 
120 75 70 120 51 75 74 51 120 
12 24 27 117 121 118 151 118 156 
12 8 7 17 49 24 49 17 53 
49 53 77 77 121 91 174 162 182 
196 182 204 196 204 210 210 204 220 
244 227 251 240 227 244 244 251 248 
243 244 248 243 248 246 12 1 8 
27 24 55 55 24 49 224 210 220 
224 220 227 27 55 76 76 74 100 
62 76 100 42 51 74 59 86 78 
114 128 129 80 63 72 
POINT_DATA 252
SCALARS k float
LOOKUP_TABLE default
1.88424 0.323573 0.813223 1.59318 0.604352 1.02015 0.16805 0.0716639 0.17172 
-0.521473 0.206936 0.169223 -0.705344 0.649739 0.151614 0.432085 0.465284 -1.64083 
-0.555032 0.93815 0.69483 0.353694 1.05852 0.259312 0.196017 0.274194 0.443225 
0.0485765 0.696966 -0.03471 0.639889 2.21118 0.274615 0.0914682 0.276737 0.339373 
0.567361 -1.23178 -0.10416 0.413143 0.130986 0.488869 0.000114202 0.253392 0.528143 
0.120541 0.225562 0.352102 -0.31807 -0.691545 -0.0188537 0.0904821 -0.208568 0.0696201 
-0.0231485 -0.576843 -0.0269568 0.0288106 -0.298264 -0.737162 0.232901 -0.0558131 -0.328944 
-1.16282 -1.11577 -0.250383 -0.309242 0.17696 -0.278344 1.20286 -0.243698 0.211841 
-0.401149 0.0454905 -0.230565 -0.702147 -1.82846 -0.620124 -0.920627 2.03991 -0.0673056 
-0.158941 -0.247324 -0.941181 -0.932179 0.0556139 -0.153869 -0.0759088 0.710604 0.51598 
-1.03107 -0.299898 -0.903871 0.249811 1.15489 -0.0440986 0.197741 0.518448 -0.0713077 
-1.59826 -0.164423 -0.189641 1.19737 -0.0412937 -0.138133 0.62966 0.360771 -0.387812 
0.231699 0.598911 0.188378 0.0620168 -0.013845 1.64917 0.379792 -0.272847 -0.109256 
0.177351 -0.0881764 -0.695448 0.207777 -0.414843 -0.0197963 -0.736831 -0.178869 2.38794 
0.528315 -0.277874 -0.301359 -0.342109 1.86121 0.774992 -0.650324 0.0384426 -0.100674 
0.362496 0.0676477 -0.732051 0.308867 0.263101 0.549262 -0.762148 -0.455956 -0.00133383 
-0.0904587 0.0684975 0.303153 0.674463 0.0544394 -0.00813174 0.394807 -0.081203 -0.207786 
-0.91073 -0.365018 -0.0288409 -0.099448 -0.966032 -0.423668 -0.062596 -1.18045 -0.0863494 
-0.332525 0.236499 -0.339707 -0.438933 -0.155662 0.0738379 -0.328065 0.389522 0.236298 
-0.0376084 0.0187088 -0.190359 0.0905662 0.696273 -0.147039 0.0249106 0.000894547 -0.021088 
-0.110836 -0.0863037 0.272196 -0.52688 0.579116 0.00612724 0.0586593 0.354385 -0.00819021 
0.0109032 0.0257009 -0.267452 0.109991 -0.314328 -0.142166 0.0130851 0.0705469 0.0634495 
-0.113544 -0.00722605 -0.20537 0.082601 -0.0789074 -0.141169 -0.101408 -0.0487641 -0.0900406 
0.311877 -0.288475 0.0955707 0.00629658 0.273618 0.203965 0.0748708 -0.451142 -0.113872 
0.100126 -0.0350294 0.124212 -0.254071 -0.399678 0.159916 0.0219953 0.0326649 -0.287169 
-0.172234 -0.232251 -0.144124 -0.079628 -0.029383 -0.0694261 0.416335 0.0143578 0.0368904 
0.0459633 0.671255 -0.0778424 0.640863 0.631304 -0.0375588 0.064961 -0.0846314 -0.0371665 
0.490109 0.421269 0.26752 0.00703561 0.81217 1.11109 0.0701635 0.855709 0.0446221 

FIELD FieldData 7
h 1 252 float
2.70878 2.90457 -0.343185 0.743238 1.1277 0.61629 1.91998 -4.65193 1.49966 
1.05856 1.97904 1.47878 -0.268615 5.16404 2.01511 3.87355 -0.41839 -1.12755 
-0.751627 0.353693 0.645605 0.345885 0.415331 2.28838 -0.659221 -0.761028 0.641994 
0.866094 0.555508 -0.950975 3.48688 -1.17391 1.17869 7.92186 2.51158 4.17078 
-0.343955 -0.886025 0.0976083 0.76649 0.508628 1.7679 1.74717 -0.722125 8.95193 
1.59761 1.61308 10.4447 -0.160464 -0.954985 -0.224721 1.29842 -1.0518 1.17691 
2.04636 -0.763573 1.36881 1.49184 0.116164 -1.22025 -0.244041 -0.470103 -0.473834 
-0.412021 -1.24985 0.750392 0.295537 -0.0526569 0.963286 0.144467 0.703745 -0.0824029 
-0.615756 0.656031 1.38761 1.28856 0.212045 0.358973 0.551164 0.856818 -1.01273 
0.18477 0.116964 -0.316295 1.08349 -1.24899 0.222897 -0.430668 0.309911 4.80953 
0.877885 1.28744 -0.552308 1.93053 9.40396 1.12251 0.656406 0.629887 -0.669842 
-0.588925 0.593072 0.179282 0.74395 0.561099 -0.405908 -0.655645 0.474676 0.0455343 
1.01529 1.21192 1.06458 1.73871 1.19458 0.591898 0.309391 0.79601 0.715561 
1.07973 1.08162 -3.03902 0.939862 1.04848 -0.183907 -0.649084 2.27443 -0.0195004 
0.492508 -0.535512 -0.198746 -0.300985 0.468917 8.19443 -0.0246038 0.999133 0.983601 
7.91121 -0.154549 1.37044 5.74801 -0.353169 -1.00026 -0.0252112 -0.236896 1.06888 
1.16116 0.127381 -1.34887 0.260548 -0.39002 -0.194279 1.1233 1.24664 2.6946 
0.602495 2.78717 0.940903 1.19803 0.499485 0.989107 1.26726 -5.66797 -0.377932 
1.38024 1.40718 0.463538 -1.46612 -0.247291 -0.180803 -1.70557 1.26222 0.733131 
1.4053 1.5188 -0.368835 3.21185 0.188186 -0.422467 -0.25786 1.36294 1.14367 
-0.283812 1.252 2.20609 -0.275536 5.1865 6.42815 -0.38558 1.14522 1.75942 
1.50445 0.509422 1.87679 0.422401 5.39488 1.77975 1.3736 0.805685 1.23743 
-0.426454 1.49479 -0.110207 0.0473293 1.56476 2.09557 4.87686 3.0427 0.354125 
0.168612 1.05966 1.82058 0.602726 1.89827 0.588599 1.67982 3.2833 3.11051 
2.08816 0.0237718 2.31918 0.00741519 4.05874 2.27675 2.48208 1.96521 0.13007 
1.85243 1.23427 2.4401 3.0698 3.46239 0.356243 3.95402 1.89594 0.355913 
3.32261 7.5645 0.38915 3.46956 3.18409 3.06748 0.942185 3.13917 2.20218 
1.56326 3.37075 3.42753 5.56252 2.5957 10.6524 2.74387 6.69773 3.52559 

kmin 1 252 float
5.63087 6.149 3.62963 2.63956 2.8421 1.61496 4.20946 -2.02843 6.17911 
1.93556 3.53964 2.84464 1.91696 8.77952 4.96776 4.8277 0.42032 1.24034 
2.95619 1.23632 3.18526 1.26596 1.29447 3.75815 1.30149 0.476496 2.19723 
2.77235 2.30188 0.202871 6.40987 -0.302645 2.98892 19.3392 6.15126 6.54016 
0.412139 0.763918 0.628219 2.46078 1.47684 5.10576 2.95886 1.07851 18.173 
2.8064 3.0698 18.3884 0.938899 0.342464 1.65696 2.52046 -0.303992 2.41713 
2.90135 0.876384 1.93356 2.5998 1.69344 0.841162 0.438894 0.905957 1.01148 
0.882169 0.781928 1.36695 2.16917 0.701901 2.73885 0.839963 1.49331 0.666803 
0.706991 3.82382 1.98539 2.32768 2.48552 1.7734 1.60047 2.96633 1.18579 
2.28557 0.95969 1.66513 2.21317 0.854977 0.788039 0.400928 1.11283 8.03983 
1.3999 3.32289 0.38624 5.12333 22.2296 1.36832 1.38049 1.77158 1.01072 
0.501421 1.28809 1.03344 2.16137 1.43431 1.18276 1.35904 0.768408 1.95931 
1.79262 1.7482 3.02525 3.5912 4.15593 2.32327 0.80228 2.04713 3.03643 
2.15202 1.96887 0.264369 1.18782 2.20818 0.840525 0.348431 6.05775 0.672746 
4.27637 3.34471 0.559452 0.545545 1.80928 18.3217 0.581134 1.53186 1.47046 
13.2753 0.880555 3.20488 12.1489 0.506899 1.86186 0.508043 0.975687 1.82966 
2.066 1.01228 0.628261 1.04586 0.415056 0.815963 3.92025 2.81859 4.99965 
5.6425 6.73568 1.7766 2.26881 1.55143 2.1678 2.49807 1.60649 0.445031 
3.06392 2.78963 1.41202 0.293703 0.691725 0.661539 0.42777 3.36742 1.71575 
2.86845 2.56082 2.57877 6.33595 0.911884 0.745604 0.499578 2.24984 1.72608 
0.572521 2.40003 4.73733 0.472309 10.664 13.4969 0.444087 2.05435 3.09253 
2.33903 1.18988 3.36113 1.73961 11.6172 3.75983 2.68517 1.60672 2.43423 
0.551782 2.65504 0.561269 0.497648 3.12062 3.52415 10.7049 5.88053 0.936297 
0.552665 2.52183 2.89513 1.27704 3.68493 1.46308 2.72031 6.36303 7.26724 
3.38767 0.791437 3.939 0.40719 8.45745 4.6698 3.8722 3.2318 0.352009 
3.10472 2.82671 5.5442 5.99002 7.19389 0.923012 7.42276 3.13014 1.90001 
5.92155 14.1307 0.868888 5.61284 5.19674 5.91725 3.4257 5.14412 3.91529 
2.74047 7.73126 4.87588 8.71964 4.14416 18.815 5.47857 9.88253 6.99805 

kmax 1 252 float
-0.213317 -0.339863 -4.316 -1.15308 -0.586702 -0.38238 -0.369494 -7.27543 -3.17979 
0.181568 0.418448 0.112917 -2.45419 1.54855 -0.937547 2.91941 -1.2571 -3.49543 
-4.45944 -0.528935 -1.89405 -0.574188 -0.463811 0.818615 -2.61993 -1.99855 -0.913237 
-1.04016 -1.19086 -2.10482 0.563897 -2.04518 -0.631533 -3.49548 -1.1281 1.8014 
-1.10005 -2.53597 -0.433003 -0.927804 -0.459585 -1.56995 0.535477 -2.52275 -0.269116 
0.388823 0.156367 2.50094 -1.25983 -2.25243 -2.1064 0.0763827 -1.7996 -0.0633029 
1.19136 -2.40353 0.804053 0.383869 -1.46111 -3.28166 -0.926977 -1.84616 -1.95914 
-1.70621 -3.28163 0.133829 -1.57809 -0.807215 -0.812279 -0.551029 -0.0858153 -0.831609 
-1.9385 -2.51176 0.789835 0.24943 -2.06143 -1.05545 -0.498144 -1.2527 -3.21124 
-1.91603 -0.725762 -2.29772 -0.0461881 -3.35295 -0.342246 -1.26226 -0.493004 1.57922 
0.355868 -0.747999 -1.49086 -1.26227 -3.42169 0.876697 -0.067678 -0.511809 -2.3504 
-1.67927 -0.101945 -0.674878 -0.673465 -0.312113 -1.99458 -2.67033 0.180945 -1.86824 
0.23796 0.675633 -0.896097 -0.113787 -1.76677 -1.13947 -0.183497 -0.455112 -1.60531 
0.00743 0.194368 -6.34242 0.6919 -0.111226 -1.20834 -1.6466 -1.50888 -0.711747 
-3.29135 -4.41573 -0.956943 -1.14752 -0.871451 -1.93283 -0.630342 0.466407 0.496744 
2.54713 -1.18965 -0.464005 -0.652844 -1.21324 -3.86238 -0.558465 -1.44948 0.308107 
0.256324 -0.757518 -3.32599 -0.524759 -1.1951 -1.20452 -1.67365 -0.325309 0.389557 
-4.43751 -1.16135 0.105201 0.127245 -0.552462 -0.189584 0.0364533 -12.9424 -1.20089 
-0.303439 0.0247248 -0.484947 -3.22595 -1.18631 -1.02314 -3.83891 -0.84297 -0.249486 
-0.0578586 0.476775 -3.31643 0.0877453 -0.535512 -1.59054 -1.0153 0.476044 0.561256 
-1.14015 0.10398 -0.325145 -1.02338 -0.291018 -0.640593 -1.21525 0.236088 0.426316 
0.669869 -0.171037 0.392445 -0.894803 -0.827471 -0.20032 0.0620367 0.00465373 0.0406355 
-1.40469 0.33454 -0.781684 -0.402989 0.00890431 0.666994 -0.95115 0.204871 -0.228047 
-0.21544 -0.402511 0.746027 -0.0715827 0.111613 -0.285877 0.639342 0.203566 -1.04623 
0.788647 -0.743893 0.699352 -0.392359 -0.339976 -0.116311 1.09196 0.698624 -0.0918695 
0.600149 -0.358172 -0.664003 0.149591 -0.269105 -0.210526 0.485274 0.661745 -1.18818 
0.72366 0.998257 -0.0905881 1.32627 1.17144 0.217701 -1.54133 1.13422 0.489075 
0.386049 -0.989768 1.97917 2.4054 1.04724 2.48972 0.00917288 3.51293 0.0531265 

hks 16 252 double
0.71785100028 0.72560557911 0.73330350392 0.7409356477 0.74849337558 0.75596853038 0.76335340758 0.77064072123 0.77782356208 
0.78489534953 0.79184977897 0.79868076631 0.80538239117 0.81194884053 0.81837435429 0.82465317431 0.64931202411 0.65699549557 
0.66468784665 0.67237607411 0.68004725327 0.68768860494 0.69528755533 0.70283178811 0.71030928813 0.71770837648 0.72501773683 
0.73222643312 0.73932391923 0.746300041 0.75314503154 0.75984950088 0.62356717579 0.63232849278 0.64103940368 0.64968693781 
0.65825868667 0.66674282738 0.67512813426 0.68340397967 0.69156032498 0.69958770295 0.70747719282 0.7152203894 0.72280936748 
0.73023664306 0.73749513247 0.74457811094 0.69425744109 0.70245905991 0.71056735623 0.71857562312 0.72647768467 0.73426784357 
0.74194082183 0.74949169683 0.75691583428 0.76420881992 0.77136639175 0.77838437418 0.78525861552 0.79198493021 0.7985590466 
0.80497656153 0.55608308597 0.56496765471 0.57386665831 0.58276209158 0.59163620307 0.60047160343 0.60925136338 0.61795910044 
0.62657905351 0.63509614491 0.64349602954 0.65176513124 0.65989066654 0.66786065638 0.67566392653 0.68329009765 0.70769563554 
0.71604153974 0.72428849353 0.73242919523 0.74045696159 0.74836567495 0.75614972212 0.76380392723 0.7713234805 0.77870386488 
0.78594078238 0.79303008182 0.79996768959 0.80674954466 0.81337153915 0.81982946549 0.63401744068 0.64288844711 0.65173442749 
0.66054024263 0.66929113634 0.67797280129 0.68657143362 0.69507377597 0.7034671491 0.71173947244 0.71987927395 0.72787569025 
0.7357184578 0.74339789632 0.7509048855 0.75823083648 0.50207544387 0.50995801448 0.51790616461 0.5259020364 0.5339277319 
0.54196544595 0.54999759086 0.55800691141 0.5659765887 0.57389033223 0.58173245921 0.58948796099 0.59714255655 0.60468273315 
0.61209577472 0.61936977861 0.6067657656 0.61489601057 0.62302472997 0.63113790169 0.63922178516 0.64726297928 0.65524846998 
0.66316566777 0.67100243537 0.67874710594 0.68638849279 0.69391589129 0.70131907398 0.70858827999 0.71571419977 0.72268795637 
0.45962583124 0.46732458419 0.47510532252 0.48295131789 0.49084537559 0.49876999363 0.50670752326 0.51464032765 0.52255093548 
0.53042218637 0.53823736552 0.54598032517 0.55363559093 0.56118845168 0.5686250321 0.57593234745 0.53916238679 0.54740763654 
0.55568909236 0.56399265147 0.5723042727 0.58061008672 0.58889650038 0.59715029305 0.60535870331 0.61350950439 0.62159106712 
0.62959240939 0.63750323152 0.64531393722 0.65301564032 0.66060015754 0.63189500492 0.63965081172 0.64739731955 0.65512301332 
0.66281686135 0.67046837522 0.67806765831 0.68560544228 0.69307311126 0.70046271354 0.70776696076 0.71497921507 0.72209346462 
0.7291042882 0.73600680988 0.74279664489 0.43031849715 0.43741772733 0.44459991272 0.45185140841 0.45915800419 0.46650504083 
0.47387753241 0.48126029247 0.48863806129 0.49599563197 0.50331797271 0.51059034299 0.51779840158 0.52492830439 0.53196679084 
0.53890125743 0.43320716677 0.43873410073 0.44440137509 0.45020278725 0.45613105312 0.46217785543 0.46833390885 0.47458904029 
0.48093228259 0.48735197918 0.49383589725 0.50037134658 0.50694530131 0.51354452159 0.52015567261 0.52676543807 0.62878773378 
0.63709185753 0.64542062905 0.65375672248 0.6620829653 0.6703824523 0.67863864903 0.68683548351 0.6949574252 0.70298955023 
0.71091759292 0.71872798324 0.72640787064 0.73394513492 0.74132838494 0.74854694642 0.56213358922 0.56965913209 0.57724021661 
0.58486433072 0.59251883129 0.60019104157 0.60786834649 0.61553828403 0.62318863104 0.63080748167 0.63838331716 0.64590506555 
0.65336215035 0.66074452742 0.66804270948 0.67524777814 0.51912640678 0.52713543079 0.53523171638 0.54339760593 0.55161489962 
0.55986501664 0.56812915873 0.57638847298 0.58462421057 0.59281787844 0.60095138113 0.60900715027 0.61696825974 0.62481852491 
0.63254258485 0.64012596691 0.35306513238 0.35749846818 0.36208521835 0.36681717266 0.37168491036 0.37667790611 0.38178465342 
0.38699280277 0.39228931085 0.39766059743 0.40309270612 0.40857146538 0.41408264613 0.41961211274 0.42514596441 0.43067066451 
0.44058877249 0.44709676761 0.45372583512 0.4604665978 0.46730879321 0.47424136124 0.48125254392 0.48832999518 0.49546089797 
0.502632086 0.50983016724 0.51704164628 0.52425304285 0.53145100378 0.53862240625 0.54575445005 0.6302968632 0.63869781578 
0.64702080757 0.65525763159 0.66340083923 0.67144374435 0.67938041577 0.68720565852 0.69491498438 0.70250457252 0.70997122101 
0.71731228996 0.72452563768 0.7316095506 0.73856266846 0.74538390591 0.5907910692 0.59873908027 0.60669835607 0.61465579846 
0.62259871682 0.63051491167 0.63839274546 0.64622119974 0.6539899179 0.66168923339 0.66931018337 0.67684450823 0.6842846376 
0.69162366382 0.69885530405 0.7059738523 0.33149846793 0.33284223947 0.33433853434 0.3359925559 0.33780830882 0.3397885293 
0.34193463589 0.34424670204 0.34672345043 0.34936226895 0.35215924739 0.35510923331 0.3582059055 0.36144186244 0.36480872335 
0.36829723893 0.66034403286 0.66784388881 0.67527009181 0.68261770397 0.68988246947 0.69706077845 0.7041496215 0.71114653624 
0.71804954704 0.72485709934 0.73156798988 0.73818129397 0.74469629105 0.75111238976 0.75742905344 0.76364572719 0.42695468245 
0.43207077898 0.43732858945 0.44272387875 0.44825130224 0.45390442674 0.45967576981 0.46555685624 0.47153829049 0.47760984304 
0.48376054857 0.48997881326 0.49625252855 0.50256918862 0.50891600847 0.51528004025 0.29062432908 0.2916048717 0.2927964254 
0.29419884362 0.29581025245 0.29762709878 0.29964422727 0.30185498395 0.30425134329 0.30682405536 0.30956280902 0.31245640681 
0.31549294703 0.31866000857 0.32194483399 0.32533450686 0.37087643494 0.37508144508 0.379415513 0.38387437427 0.38845262712 