# vtk DataFile Version 5.1
vtk output
ASCII
DATASET POLYDATA
POINTS 252 float
0.818381 0.084774 -0.113443 0.8177 0.149035 0.04737 0.818341 0.008983 0.059635 
0.767431 0.263291 -0.078766 0.766272 0.058461 0.196475 0.774344 0.260738 0.02296 
0.79581 -0.068079 -0.053897 0.791991 0.141012 0.138291 0.738602 -0.159236 0.004727 
0.721483 -0.151719 -0.113067 0.753873 0.200773 -0.179311 0.684902 0.356586 0.03422 
0.678989 0.144038 -0.281063 0.700756 -0.013158 0.252278 0.642187 0.362385 -0.108293 
0.761196 -0.046488 -0.177232 0.749 -0.112666 0.127383 0.731816 0.262035 0.15517 
0.712148 0.029618 -0.264404 0.668994 -0.123595 -0.21818 0.664453 0.203028 0.265654 
0.643741 -0.233847 -0.015426 0.553983 0.410285 -0.070006 0.58319 0.294357 0.245805 
0.660206 0.265005 -0.235114 0.612827 0.088466 -0.328762 0.52014 0.170247 0.329554 
0.562075 -0.074386 -0.308495 0.649643 -0.174794 0.172478 0.605334 -0.223483 -0.133581 
0.583735 -0.065337 0.302337 0.646869 -0.215489 0.094812 0.628643 0.087252 0.314772 
0.559019 0.391982 0.130723 0.538679 -0.197037 -0.216056 0.541418 0.335651 -0.223001 
0.532819 -0.268527 0.003604 0.54491 -0.398954 0.088654 0.524337 -0.535464 0.040614 
0.532443 -0.207007 0.194818 0.549576 -0.257586 0.066772 0.477307 -0.501887 0.011328 
0.516799 -0.571555 0.098183 0.514358 -0.426165 0.139481 0.475061 -0.268657 -0.029151 
0.488326 -0.535722 0.153539 0.404725 -0.175851 -0.231123 0.433376 0.101755 0.339767 
0.45092 0.282233 0.278622 0.481627 -0.246653 0.11967 0.461975 -0.383431 0.140606 
0.436173 -0.072787 -0.311852 0.424156 -0.190871 0.210721 0.468586 -0.112572 0.289665 
0.478195 0.086495 -0.350754 0.48673 0.420015 0.021853 0.454321 -0.014289 0.329645 
0.378937 0.40312 -0.048661 0.454287 0.377404 -0.166978 0.434382 -0.481571 0.021329 
0.389802 0.303822 -0.248342 0.351081 0.178454 -0.310032 0.482404 -0.258202 -0.097893 
0.425889 -0.496368 0.144433 0.422684 -0.248262 0.09954 0.501628 0.229678 -0.313218 
0.40939 -0.26034 0.00566 0.396487 -0.403956 0.061289 0.38821 -0.601447 0.118446 
0.304708 -0.061018 -0.266976 0.310884 0.25943 0.236468 0.297361 -0.112063 0.224605 
0.327546 0.050373 -0.31294 0.330879 -0.6845 0.011926 0.386543 -0.480067 0.077897 
0.323007 0.014676 0.298297 0.290877 0.338389 -0.117096 0.346528 0.370408 0.129291 
0.327449 -0.217873 -0.10228 0.340596 -0.23592 0.026758 0.338795 -0.207284 0.134673 
0.269026 -0.562893 -0.039479 0.241964 -0.619152 0.071914 0.229086 -0.151545 -0.048213 
0.257428 -0.556278 0.021932 0.238643 -0.158657 0.071176 0.308535 -0.604571 -0.066207 
0.318154 0.146084 0.291592 0.227583 0.095669 -0.234465 0.214053 0.064786 0.220713 
0.267851 -0.128218 -0.1822 0.21888 0.216117 0.171931 0.24411 0.326008 -0.023309 
0.200812 0.263324 0.0629 0.319742 -0.663169 -0.047827 0.184785 -0.043247 0.126636 
0.226795 0.228867 -0.182286 0.184553 0.003287 -0.164896 0.150616 -0.717452 0.015591 
0.172122 -0.058592 -0.063276 0.157114 0.107873 0.098411 0.145841 0.026454 0.030038 
0.144024 0.138289 -0.050752 0.150958 -0.618574 -0.100702 0.098583 -0.59506 -0.024214 
0.089256 -0.657852 0.026367 0.051629 -0.712964 -0.027371 0.122061 -0.697552 -0.118467 
0.118037 -0.7446 -0.050613 0.011082 0.175938 0.05954 0.017012 0.206394 -0.058141 
-0.020401 0.08551 -0.037525 0.009463 0.344927 -0.005618 -0.000125 0.281864 0.128556 
-0.020421 0.32149 -0.156005 -0.0536 0.046117 0.101711 -0.018151 -0.65847 -0.174836 
0.018387 -0.549168 -0.119027 4.5e-05 -0.560831 -0.172973 -0.059037 0.158177 0.210647 
-0.055153 -0.613265 -0.042135 -0.034537 0.158675 -0.175661 -0.06853 -0.572355 -0.189529 
-0.047092 0.411303 0.13677 -0.042766 0.428134 -0.088099 -0.12889 0.272187 -0.284673 
-0.125848 -0.59958 -0.154748 -0.092094 0.324057 0.249823 -0.089508 -0.664183 -0.106435 
-0.070325 0.482642 0.037309 -0.096623 -0.021008 -0.001097 -0.140343 0.382609 -0.261573 
-0.190536 -0.530441 -0.004277 -0.175919 0.512623 -0.173346 -0.13562 0.149557 -0.272871 
-0.099617 -0.439048 -0.02384 -0.170208 0.000413 0.198401 -0.090007 0.044649 -0.16451 
-0.09975 -0.485374 -0.000303 -0.148616 0.160688 0.290167 -0.204046 -0.001051 -0.221491 
-0.191502 -0.081719 -0.010543 -0.175472 -0.367841 -0.029198 -0.147892 -0.503684 0.024557 
-0.225665 -0.464561 -0.085498 -0.238004 0.036019 0.263508 -0.156503 0.544815 -0.057142 
-0.232315 -0.317331 0.111347 -0.218202 0.436092 0.27669 -0.178761 0.545394 0.113767 
-0.228883 0.14579 -0.3215 -0.280219 -0.297528 0.05248 -0.168308 -0.582658 -0.079931 
-0.282136 -0.437323 0.107613 -0.31019 -0.433776 0.067841 -0.291848 0.182535 0.343898 
-0.197006 -0.412082 -0.083493 -0.319243 0.539437 0.19268 -0.255904 -0.405038 0.144836 
-0.233077 -0.355313 0.142242 -0.318552 0.225441 -0.341538 -0.319059 -0.380646 0.017345 
-0.278892 -0.083408 -0.101939 -0.283698 -0.078302 0.117244 -0.323492 0.576308 -0.107071 
-0.271811 0.483976 -0.247091 -0.280342 0.342882 -0.326746 -0.242127 0.298375 0.338047 
-0.372376 -0.096435 0.010959 -0.412486 -0.03473 0.186957 -0.297977 0.591063 0.017496 
-0.341678 -0.076314 -0.143402 -0.325318 0.018761 -0.263312 -0.327284 0.427664 0.296801 
-0.307538 -0.021376 0.223524 -0.441577 -0.453992 0.178296 -0.416514 -0.302145 0.18733 
-0.413948 0.303295 0.332296 -0.474989 -0.367583 0.107994 -0.411435 0.328187 -0.323182 
-0.416059 -0.197479 -0.129673 -0.426723 0.50644 0.206377 -0.418186 0.152729 -0.324802 
-0.400456 0.574741 0.081745 -0.418861 -0.025254 -0.204788 -0.423557 0.160531 0.325318 
-0.421362 -0.222309 -0.199544 -0.450054 0.565542 -0.021254 -0.511667 -0.25066 -0.107667 
-0.409687 -0.077676 -0.06579 -0.379683 -0.354813 0.220779 -0.470157 -0.049058 -0.077954 
-0.507856 -0.313262 -0.246187 -0.448589 -0.173908 -0.238298 -0.477656 0.50897 -0.164444 
-0.529759 0.516774 0.072925 -0.450514 -0.419757 0.242657 -0.569178 0.056321 0.161716 
-0.491882 -0.038174 0.09872 -0.478943 -0.122739 -0.227974 -0.520988 -0.127575 -0.120084 
-0.550152 -0.008537 -0.004114 -0.576457 -0.210059 -0.20909 -0.474755 -0.323859 -0.196449 
-0.447403 0.432089 -0.261677 -0.540486 0.506428 -0.053976 -0.557655 -0.265658 -0.25423 
-0.485604 -0.0141 -0.158651 -0.443628 0.094798 0.295424 -0.51089 -0.411125 0.124619 
-0.545058 0.118567 -0.233568 -0.499681 -0.31607 -0.127803 -0.486064 0.391772 0.273669 
-0.566301 0.432076 0.167973 -0.535714 0.279505 -0.268385 -0.583917 0.373507 -0.186554 
-0.521794 -0.324748 0.261651 -0.626038 0.12194 -0.122523 -0.631023 -0.281491 0.177718 
-0.641659 -0.351184 -0.081876 -0.61425 0.439365 -0.040776 -0.469711 -0.321606 0.129888 
-0.560927 0.26207 0.258443 -0.612169 -0.323868 0.135878 -0.583586 -0.245653 -0.136433 
-0.624772 0.261045 -0.169509 -0.590529 0.159606 0.204857 -0.652793 0.326665 0.088307 
-0.634333 0.092626 -0.025501 -0.627524 -0.454217 -0.185552 -0.610709 -0.451441 -0.112643 
-0.622487 -0.403018 0.144149 -0.635044 -0.387513 0.272765 -0.650104 0.162563 0.09254 
-0.653311 -0.314402 0.270006 -0.676891 -0.426137 -0.211411 -0.670921 0.286544 -0.010583 
-0.670726 -0.479275 -0.105928 -0.680733 -0.354047 0.026849 -0.702106 -0.365906 0.247995 
-0.694208 -0.33525 -0.151694 -0.746533 -0.422707 0.055247 -0.749075 -0.451769 -0.085038 
-0.657319 -0.419873 0.227425 -0.665895 -0.275261 0.214521 -0.731165 -0.298694 -0.04674 
-0.710129 -0.376362 -0.19531 -0.798608 -0.28022 0.043996 -0.811224 -0.401611 0.065714 
-0.82171 -0.337816 -0.013626 -0.778451 -0.405684 -0.103798 -0.814153 -0.327885 0.112394 

POLYGONS 501 1500
OFFSETS vtktypeint64
0 3 6 9 12 15 18 21 24 
27 30 33 36 39 42 45 48 51 
54 57 60 63 66 69 72 75 78 
81 84 87 90 93 96 99 102 105 
108 111 114 117 120 123 126 129 132 
135 138 141 144 147 150 153 156 159 
162 165 168 171 174 177 180 183 186 
189 192 195 198 201 204 207 210 213 
216 219 222 225 228 231 234 237 240 
243 246 249 252 255 258 261 264 267 
270 273 276 279 282 285 288 291 294 
297 300 303 306 309 312 315 318 321 
324 327 330 333 336 339 342 345 348 
351 354 357 360 363 366 369 372 375 
378 381 384 387 390 393 396 399 402 
405 408 411 414 417 420 423 426 429 
432 435 438 441 444 447 450 453 456 
459 462 465 468 471 474 477 480 483 
486 489 492 495 498 501 504 507 510 
513 516 519 522 525 528 531 534 537 
540 543 546 549 552 555 558 561 564 
567 570 573 576 579 582 585 588 591 
594 597 600 603 606 609 612 615 618 
621 624 627 630 633 636 639 642 645 
648 651 654 657 660 663 666 669 672 
675 678 681 684 687 690 693 696 699 
702 705 708 711 714 717 720 723 726 
729 732 735 738 741 744 747 750 753 
756 759 762 765 768 771 774 777 780 
783 786 789 792 795 798 801 804 807 
810 813 816 819 822 825 828 831 834 
837 840 843 846 849 852 855 858 861 
864 867 870 873 876 879 882 885 888 
891 894 897 900 903 906 909 912 915 
918 921 924 927 930 933 936 939 942 
945 948 951 954 957 960 963 966 969 
972 975 978 981 984 987 990 993 996 
999 1002 1005 1008 1011 1014 1017 1020 1023 
1026 1029 1032 1035 1038 1041 1044 1047 1050 
1053 1056 1059 1062 1065 1068 1071 1074 1077 
1080 1083 1086 1089 1092 1095 1098 1101 1104 
1107 1110 1113 1116 1119 1122 1125 1128 1131 
1134 1137 1140 1143 1146 1149 1152 1155 1158 
1161 1164 1167 1170 1173 1176 1179 1182 1185 
1188 1191 1194 1197 1200 1203 1206 1209 1212 
1215 1218 1221 1224 1227 1230 1233 1236 1239 
1242 1245 1248 1251 1254 1257 1260 1263 1266 
1269 1272 1275 1278 1281 1284 1287 1290 1293 
1296 1299 1302 1305 1308 1311 1314 1317 1320 
1323 1326 1329 1332 1335 1338 1341 1344 1347 
1350 1353 1356 1359 1362 1365 1368 1371 1374 
1377 1380 1383 1386 1389 1392 1395 1398 1401 
1404 1407 1410 1413 1416 1419 1422 1425 1428 
1431 1434 1437 1440 1443 1446 1449 1452 1455 
1458 1461 1464 1467 1470 1473 1476 1479 1482 
1485 1488 1491 1494 1497 1500 
CONNECTIVITY vtktypeint64
110 114 112 24 25 65 91 93 100 
109 112 113 109 110 112 93 102 100 
16 13 30 164 165 194 112 114 124 
93 92 102 4 13 16 133 131 165 
124 114 133 114 131 133 92 96 102 
92 76 96 16 2 4 60 96 76 
60 61 96 0 2 6 58 35 60 
35 65 60 35 24 65 10 12 24 
10 0 18 10 18 12 177 173 212 
167 173 177 148 173 167 181 195 213 
212 181 213 173 181 212 127 148 167 
183 187 195 113 123 127 87 70 89 
47 87 75 30 47 56 32 47 30 
195 187 205 187 194 205 113 112 123 
70 91 89 32 26 47 164 194 187 
123 112 129 77 93 91 13 4 32 
133 165 164 129 124 146 112 124 129 
77 92 93 146 124 133 4 2 7 
2 1 7 57 58 76 58 60 76 
1 0 3 2 0 1 3 0 10 
3 10 24 173 157 181 148 157 173 
181 183 195 157 183 181 148 123 149 
127 123 148 26 48 47 170 187 183 
157 170 183 157 149 170 123 129 149 
87 48 70 47 48 87 170 164 187 
149 146 170 146 164 170 149 129 146 
91 70 77 20 26 32 164 146 133 
4 20 32 4 17 20 77 57 92 
7 17 4 92 57 76 7 1 17 
1 5 17 55 22 57 22 58 57 
1 3 5 22 35 58 14 35 22 
11 3 14 14 24 35 14 3 24 
148 149 157 70 48 77 26 23 48 
26 20 23 48 33 77 23 33 48 
20 17 23 77 55 57 33 55 77 
23 17 33 17 11 33 17 5 11 
55 33 22 11 22 33 11 14 22 
5 3 11 136 145 174 233 197 226 
169 174 208 169 208 197 27 19 34 
27 46 51 51 72 54 19 29 34 
27 34 46 72 51 69 69 51 46 
9 21 29 69 90 97 88 69 97 
29 21 62 62 21 36 97 90 99 
137 140 134 134 140 150 160 150 182 
36 21 40 21 31 40 40 37 36 
62 36 44 83 99 90 37 40 43 
40 39 49 43 40 49 66 64 79 
67 64 66 64 80 79 79 80 85 
83 79 85 83 85 99 214 182 210 
214 210 225 50 49 64 43 49 50 
49 39 52 49 52 64 64 52 80 
225 210 217 225 217 236 130 115 136 
130 136 141 136 163 141 236 217 228 
163 136 174 163 174 169 228 197 233 
228 233 236 169 197 198 29 62 34 
34 62 46 69 46 90 46 62 78 
90 46 78 62 44 66 62 66 78 
44 59 66 66 79 78 90 78 83 
150 172 182 150 140 172 66 59 67 
78 79 83 130 141 137 140 137 141 
182 184 210 63 50 64 63 64 67 
140 141 162 168 162 141 210 207 217 
141 163 168 201 228 217 168 163 169 
168 169 198 168 198 201 228 201 197 
201 198 197 36 41 44 36 37 38 
37 42 38 36 38 41 44 41 59 
172 140 171 172 171 184 182 172 184 
42 37 43 45 42 43 45 43 50 
63 67 74 140 162 171 171 193 184 
184 199 207 184 207 210 45 50 63 
162 168 171 171 168 189 180 171 189 
207 202 200 191 207 200 207 191 201 
207 201 217 189 191 188 191 189 168 
168 201 191 41 86 59 59 74 67 
193 171 186 184 193 199 207 199 202 
42 45 68 45 63 68 186 171 180 
180 189 188 147 142 151 188 191 200 
176 151 221 147 151 176 159 147 176 
135 142 147 158 159 190 190 159 176 
190 176 216 216 176 218 216 218 244 
234 216 244 41 38 86 59 86 81 
74 59 81 84 74 81 199 193 206 
74 84 82 63 74 82 68 63 82 
199 206 202 151 142 156 180 188 211 
200 202 224 188 200 224 138 135 159 
138 159 143 159 135 147 143 159 158 
156 161 151 151 161 221 221 161 178 
153 158 175 175 158 196 196 158 190 
178 231 223 221 178 223 221 218 176 
190 216 196 218 221 223 251 244 247 
196 216 232 232 216 234 239 232 234 
234 244 251 234 251 239 38 94 86 
38 73 94 38 42 73 81 86 103 
84 103 104 81 103 84 186 192 193 
42 68 73 73 68 98 98 68 82 
82 84 105 105 84 104 138 117 135 
118 122 156 142 118 156 135 118 142 
186 203 192 186 180 203 203 180 211 
193 192 206 143 120 138 156 144 161 
152 154 144 211 188 219 224 202 240 
219 188 224 144 154 161 132 143 153 
143 158 153 132 153 154 224 240 219 
154 153 175 178 161 154 178 154 209 
238 219 245 154 175 209 178 209 231 
223 231 238 223 238 218 218 238 245 
218 245 247 244 218 247 175 196 243 
209 175 231 175 243 231 241 231 243 
247 249 251 243 196 232 243 232 239 
243 239 248 248 239 251 73 108 94 
86 94 107 104 103 117 117 103 118 
135 117 118 73 98 108 105 104 120 
120 104 117 120 117 138 122 126 144 
122 144 156 192 235 206 98 82 105 
120 143 132 144 126 152 132 154 152 
203 229 192 203 211 230 206 235 246 
202 206 246 240 202 246 211 219 230 
230 219 238 245 219 240 245 240 246 
247 245 249 245 246 249 237 230 241 
230 238 241 250 242 248 250 248 249 
238 231 241 241 243 248 241 248 242 
248 251 249 103 86 107 107 108 116 
118 107 116 118 103 107 118 116 122 
122 116 126 116 128 126 107 94 108 
108 98 106 116 108 128 108 106 128 
128 152 126 106 98 105 106 105 120 
106 120 128 128 120 132 152 128 132 
229 203 230 235 192 229 235 229 237 
229 230 237 235 237 242 246 235 250 
235 242 250 246 250 249 242 237 241 
9 29 19 54 27 51 197 208 226 
85 71 95 80 71 85 52 71 80 
111 115 130 99 85 95 215 214 225 
121 111 137 137 111 130 99 95 101 
31 28 39 31 39 40 179 214 204 
179 182 214 102 99 101 97 99 102 
179 160 182 166 160 179 166 150 160 
125 134 150 125 121 134 121 137 134 
21 8 31 125 150 166 96 88 97 
9 8 21 72 69 88 19 15 9 
54 72 61 18 15 19 18 19 27 
25 27 54 25 18 27 185 222 208 
226 208 222 155 185 208 226 222 233 
233 222 227 145 155 208 174 145 208 
233 227 236 136 139 145 119 139 136 
220 236 227 115 119 136 236 215 225 
220 215 236 71 89 95 53 71 52 
109 115 111 95 100 101 39 53 52 
39 30 53 194 204 215 204 214 215 
110 111 121 110 109 111 39 28 30 
114 110 121 31 16 28 204 166 179 
114 121 125 16 31 8 165 131 166 
131 125 166 96 97 102 61 88 96 
61 72 88 15 6 9 9 6 8 
18 25 12 185 177 222 185 155 177 
222 213 227 139 155 145 213 220 227 
115 109 119 109 113 119 71 75 89 
53 56 75 71 53 75 95 89 100 
89 91 100 194 215 220 100 102 101 
28 16 30 165 204 194 165 166 204 
131 114 125 6 16 8 6 2 16 
60 65 61 15 0 6 54 61 65 
65 25 54 24 12 25 0 15 18 
222 177 212 222 212 213 155 167 177 
155 139 167 127 167 139 213 195 220 
139 119 127 119 113 127 220 195 205 
75 87 89 56 47 75 53 30 56 
205 194 220 13 32 30 
POINT_DATA 252
SCALARS k float
LOOKUP_TABLE default
0.256789 0.129458 0.165906 0.182415 0.146494 0.104325 0.135397 0.112785 0.108408 
0.112866 0.120688 0.182185 0.10572 0.137637 0.124053 0.144457 0.198135 0.192559 
0.177598 0.126688 0.168002 0.124155 0.182461 0.133382 0.182915 0.181604 0.14069 
0.19152 0.127616 0.125738 0.199853 0.100785 0.187266 0.26639 0.169799 0.14178 
-0.795368 0.0911483 0.420755 0.137828 -1.07883 -0.315979 0.769815 0.158978 -0.918064 
0.639314 0.173663 0.147528 0.232177 -0.965558 0.033897 0.136758 0.107698 0.14251 
0.17484 0.11449 0.117558 0.172116 0.119725 -0.729922 0.184936 0.199166 0.122872 
-0.108165 -1.05559 0.174531 -1.10383 -0.0957311 0.119231 0.142325 0.151134 0.202734 
0.155179 0.224098 -0.988459 0.149068 0.128097 0.279441 0.161025 0.0855969 0.108736 
-0.0733818 -0.150708 0.110241 -0.270554 0.161995 0.0632371 0.126512 0.144369 0.21437 
0.146285 0.156178 0.173161 0.154084 0.199785 0.166527 0.225013 0.182311 0.242569 
0.136494 0.118119 0.104397 0.248587 -0.624225 -0.462179 0.102543 0.161766 0.118372 
0.571211 0.131509 0.146021 0.10955 0.156762 0.17325 0.199851 0.18899 0.513297 
-0.730401 0.294602 0.175173 -1.17324 0.179095 0.464117 0.187494 0.144063 0.156465 
0.320954 0.192912 0.3041 0.151851 0.157556 0.184168 -0.113788 0.207809 0.101263 
-0.0414127 0.201459 0.172204 -0.0612803 0.174193 0.221634 0.232796 0.170722 -0.199445 
0.116759 0.117811 0.154012 0.46975 0.214211 0.234475 0.207341 0.44607 -0.0037148 
-0.360803 -0.638823 0.181714 0.204863 0.184387 -0.0438867 0.279916 0.0826744 -0.366677 
0.074434 0.143239 0.200299 0.203385 0.159658 0.194252 0.158505 0.168151 0.146819 
-1.32029 0.124664 0.132008 0.130629 0.21423 -0.0251751 0.158729 -0.286452 0.163385 
0.0154746 0.139451 0.25723 0.135289 -1.02275 0.124233 0.0844975 0.116578 -0.360305 
-1.16025 0.11019 -1.11427 0.368223 0.167134 0.200862 0.160397 0.359495 0.202511 
0.132819 0.0337488 -0.103527 0.119465 -0.172379 0.27896 0.168713 0.0667138 0.221948 
-1.16055 0.217687 -0.0897706 0.17741 0.00210196 0.166366 0.178194 0.153299 0.157904 
0.206214 0.197266 -0.332442 -1.54997 0.238995 -0.285563 0.219905 -0.899209 -0.350755 
0.161904 0.114769 0.194057 0.16134 0.489232 0.0398523 -0.974784 0.413239 0.179419 
0.616146 0.639618 0.19347 0.494346 -1.40415 0.379085 -0.797649 -0.673756 0.246095 
0.15804 0.391012 -0.18021 0.225125 0.658652 0.499471 0.453282 0.269197 0.568183 

FIELD FieldData 7
h 1 252 float
4.08725 4.33423 3.66093 4.79024 3.74358 4.50613 3.35612 4.11469 2.99318 
3.15904 4.66272 4.46376 4.63785 3.53569 4.39749 3.44618 3.2601 4.55823 
3.92251 3.26473 4.25367 2.74112 4.54494 4.69485 4.74095 4.14083 4.28761 
3.37013 2.97425 2.70692 3.2691 2.7631 3.61638 4.83949 2.58756 4.48134 
0.960925 0.688293 0.925796 2.66023 1.97031 0.490294 4.02061 1.85526 0.0244226 
-0.0262231 2.63332 3.70389 4.65029 1.13542 0.748649 3.25888 2.28813 2.93176 
4.01517 4.40633 3.33054 4.51871 4.46512 -0.359725 4.64879 4.77711 1.84369 
-0.251984 0.111979 4.6386 -0.0830306 -0.237144 -0.223625 3.32985 4.4833 2.87107 
3.96695 5.94428 -0.383966 3.25486 4.55609 4.76806 2.70632 2.36373 1.88007 
-1.38915 -2.0893 3.08182 1.05333 2.82081 0.18749 4.08948 4.17592 3.66249 
3.3699 4.36957 4.81888 4.62754 0.491714 3.26637 4.6581 3.56198 -0.380705 
3.33415 3.93947 3.68567 4.16752 -0.520761 -0.328871 -2.19389 -0.441077 0.294356 
5.66065 4.03624 4.26089 3.68324 4.56328 4.62303 4.47879 3.90986 2.42039 
0.49049 -0.669114 4.13223 -0.134336 3.77524 0.167877 4.38666 4.60635 3.67406 
2.84564 4.51839 -0.409583 4.54073 3.5572 4.30824 0.768995 4.58582 3.19779 
0.667173 3.34016 3.20479 0.173741 4.29045 3.12193 3.05868 1.18268 0.0181666 
1.95147 4.01096 4.58716 1.11082 4.38368 4.48521 3.23077 0.629473 0.0461774 
-0.0052408 -0.393188 4.37958 0.322754 4.63207 -0.866959 3.93891 3.21133 -1.85689 
2.55599 2.87664 4.43849 4.2765 3.67641 4.84318 2.21863 3.31604 4.39315 
1.83649 2.97549 4.32583 3.45442 -0.743344 -0.413148 4.71023 -8.62728 3.34493 
0.526327 4.54803 3.13712 4.5305 1.89057 4.17759 1.55406 4.54187 -2.42422 
-0.00749379 4.85179 -0.753576 3.06772 1.59395 4.37454 4.62282 -0.338174 3.24232 
2.94737 1.51793 -0.250369 2.72573 -0.214181 1.35026 3.67146 4.45215 2.77954 
0.738787 3.43766 0.396747 2.63217 0.470579 4.73184 4.47002 3.11319 3.58817 
0.0659154 2.60173 0.294142 -7.18677 3.78854 0.748338 4.05457 -5.80145 -0.534166 
3.00948 3.2699 3.60364 2.86452 -0.134789 0.231441 -0.0882738 3.59155 3.42014 
2.26173 4.21195 3.12954 0.143134 -5.46308 3.18492 0.162821 -2.29051 2.07796 
-1.19486 2.54103 1.70423 0.777216 1.98727 2.03939 1.38858 5.9373 1.91541 

kmin 1 252 float
5.09394 4.57439 5.25435 5.22479 5.15852 4.83613 5.49518 4.48062 5.37682 
5.91105 5.03217 4.67751 4.92649 5.50077 4.61773 5.5455 5.49683 4.79294 
5.10607 5.43518 4.61404 5.41276 4.8089 5.27881 5.36046 4.92049 4.55439 
5.67634 5.34624 5.53774 5.54292 5.20769 5.16486 5.17312 5.09025 4.67675 
2.47063 2.02645 3.14673 5.42565 3.38565 1.55405 6.40857 3.52715 1.16664 
1.05449 5.40394 5.25242 4.94198 2.48627 1.51404 5.47238 4.72843 5.78959 
4.99494 4.59544 5.61658 4.58272 4.60026 0.743618 4.98658 5.2114 4.06117 
0.149861 1.50751 5.0862 1.11693 1.29716 0.320925 5.48006 4.86944 5.57558 
5.19509 9.86938 4.19851 5.41622 4.88153 5.13783 4.53681 3.38198 4.09889 
0.388225 -1.06614 5.64769 6.1008 5.15598 1.88449 5.02123 4.91158 5.61366 
5.78541 4.71676 5.33592 5.01864 1.70463 5.40252 4.81865 5.22899 0.196101 
5.52416 4.69532 4.89675 4.63238 0.850678 2.1311 -0.986598 0.468457 1.39437 
8.94652 4.43863 4.60939 5.22402 4.82396 5.01316 4.62937 5.0234 3.14482 
1.61905 0.792026 4.47774 0.61945 5.2457 1.04441 4.44776 4.76333 5.08614 
4.35151 4.9482 0.286255 4.61628 5.49211 4.44392 2.35096 4.87971 5.16961 
1.14207 5.13142 5.46461 1.23429 4.66063 5.68315 5.4334 2.56018 1.0902 
3.98272 4.83432 4.62413 1.75983 4.64181 4.50787 5.3823 2.06606 0.553567 
1.06915 -0.0837778 4.92134 1.71837 4.87457 -0.132018 7.45689 5.35068 0.10765 
5.36354 5.21272 4.65436 4.32069 5.04948 5.17643 4.15662 5.88638 4.61985 
3.56041 5.7111 4.44884 5.38309 -0.603482 0.76916 5.09602 -0.447525 5.48269 
1.31584 4.69451 5.76709 4.58718 3.83609 4.7456 2.64142 4.79325 -1.6999 
1.18475 8.59856 -0.0633602 5.25062 2.6195 4.56281 5.30852 -0.0899826 5.67467 
5.12458 3.26568 1.40927 3.82739 0.992678 2.06791 5.01738 4.49822 5.80999 
2.16012 5.25867 1.06622 5.46012 0.96383 5.32166 4.78239 5.61801 5.46621 
0.758312 5.47476 1.05352 -1.28734 5.46311 0.945307 4.85424 0.0534016 1.53774 
5.48128 4.9192 5.39151 5.03867 0.835148 1.23172 1.53444 7.23742 5.50013 
4.94197 7.7953 5.60185 1.52725 -3.7985 7.97991 2.21376 -1.2396 4.23677 
-0.835224 4.23537 2.55095 3.05259 2.40373 5.04128 3.61597 9.35053 4.62617 

kmax 1 252 float
3.08056 4.09407 2.06751 4.35569 2.32864 4.17614 1.21706 3.74877 0.609541 
0.407026 4.29327 4.25001 4.34921 1.5706 4.17726 1.34687 1.02337 4.32352 
2.73894 1.09428 3.89331 0.0694859 4.28097 4.11089 4.12145 3.36118 4.02083 
1.06392 0.602263 -0.123899 0.995286 0.318507 2.06789 4.50587 0.0848671 4.28592 
-0.548779 -0.649867 -1.29514 -0.105186 0.554963 -0.57346 1.63265 0.183367 -1.1178 
-1.10694 -0.137298 2.15536 4.3586 -0.215441 -0.0167395 1.04538 -0.152174 0.0739331 
3.03541 4.21721 1.04451 4.4547 4.32998 -1.46307 4.31101 4.34282 -0.373786 
-0.653829 -1.28356 4.19099 -1.28299 -1.77144 -0.768175 1.17964 4.09716 0.166558 
2.73881 2.01919 -4.96644 1.0935 4.23064 4.39829 0.875835 1.34548 -0.338747 
-3.16652 -3.11245 0.515945 -3.99413 0.485641 -1.50951 3.15774 3.44027 1.71133 
0.954383 4.02238 4.30185 4.23643 -0.7212 1.13022 4.49756 1.89496 -0.957512 
1.14414 3.18362 2.47459 3.70266 -1.8922 -2.78884 -3.40118 -1.35061 -0.805659 
2.37478 3.63385 3.91238 2.14246 4.3026 4.2329 4.3282 2.79633 1.69596 
-0.63807 -2.13025 3.78673 -0.888121 2.30478 -0.708655 4.32556 4.44937 2.26198 
1.33978 4.08859 -1.10542 4.46519 1.62228 4.17256 -0.812972 4.29193 1.22596 
0.192273 1.5489 0.944983 -0.886809 3.92027 0.560711 0.683954 -0.194829 -1.05386 
-0.0797907 3.1876 4.55019 0.461813 4.12554 4.46254 1.07923 -0.807109 -0.461212 
-1.07963 -0.702598 3.83782 -1.07286 4.38957 -1.6019 0.420938 1.07197 -3.82144 
-0.251557 0.540547 4.22262 4.23231 2.30334 4.50994 0.280636 0.745696 4.16644 
0.112574 0.239875 4.20282 1.52575 -0.883206 -1.59546 4.32444 -16.807 1.20716 
-0.263185 4.40155 0.507144 4.47382 -0.0549579 3.60958 0.466692 4.29048 -3.14854 
-1.19974 1.10502 -1.44379 0.884817 0.568395 4.18628 3.93712 -0.586365 0.809966 
0.770159 -0.229809 -1.91001 1.62406 -1.42104 0.632606 2.32555 4.40609 -0.250918 
-0.682549 1.61666 -0.272725 -0.195781 -0.0226723 4.14201 4.15765 0.608359 1.71014 
-0.626481 -0.271297 -0.465235 -13.0862 2.11396 0.55137 3.25489 -11.6563 -2.60607 
0.537688 1.6206 1.81577 0.690363 -1.10473 -0.768841 -1.71099 -0.0543287 1.34015 
-0.418516 0.628609 0.657219 -1.24098 -7.12766 -1.61008 -1.88811 -3.34142 -0.0808533 
-1.55449 0.846694 0.857522 -1.49816 1.57081 -0.962504 -0.838808 2.52407 -0.795346 

hks 16 252 double
0.2531172094 0.25313108417 0.25310940131 0.25304560037 0.25293410269 0.25277044539 0.25255138677 0.25227498319 0.25194063899 
0.25154913205 0.25110261795 0.25060461633 0.25005998306 0.24947487149 0.24885668553 0.24821402643 0.2666895457 0.26642276811 
0.26612023808 0.26578535611 0.26542202159 0.26503448511 0.26462720428 0.26420471122 0.2637714992 0.26333193427 0.26289019622 
0.26245025194 0.26201586217 0.26159062157 0.26117803014 0.26078159245 0.25236229593 0.25194555352 0.2515471718 0.25116142405 
0.25078282269 0.2504061893 0.25002671468 0.24964001342 0.24924217768 0.24882983484 0.24840021327 0.24795121922 0.24748152702 
0.24699068291 0.24647922129 0.24594879023 0.25589987926 0.25637486379 0.25676996013 0.25708722609 0.25733020005 0.25750382801 
0.25761435713 0.25766920005 0.25767677494 0.25764632744 0.25758774094 0.25751134265 0.25742771232 0.25734750091 0.25728126492 
0.25723932172 0.26034678478 0.26103962778 0.26164841158 0.26216811174 0.26259462355 0.26292479877 0.2631564668 0.26328844173 
0.26332051798 0.26325345775 0.26308897392 0.26282971307 0.26247924307 0.26204204986 0.26152354727 0.2609301027 0.27326037408 
0.27248385875 0.27170153736 0.27091814072 0.27013868217 0.26936844012 0.26861292528 0.26787783296 0.26716898266 0.26649224831 
0.26585348401 0.26525845053 0.26471274794 0.26422175936 0.26379060966 0.26342414166 0.23970551304 0.23873777049 0.23770663893 
0.23661382907 0.23546203258 0.23425494294 0.23299725735 0.2316946601 0.23035378897 0.22898218726 0.22758824476 0.22618113173 
0.22477073042 0.22336756821 0.22198275595 0.22062793412 0.26709345188 0.26696628999 0.26681307618 0.26663430519 0.2664303581 
0.26620154002 0.26594811977 0.26567036931 0.26536860187 0.26504320951 0.26469470227 0.26432375245 0.26393124823 0.26351836096 
0.26308662998 0.26263806701 0.22182703817 0.21991522805 0.2179546551 0.21595265279 0.21391764219 0.21185906404 0.2097872771 
0.20771342573 0.20564928241 0.20360707242 0.20159928979 0.19963851441 0.19773724008 0.19590772308 0.1941618589 0.19251109275 
0.24009811017 0.23799798245 0.23576675879 0.23341925994 0.23097164676 0.2284412272 0.2258462475 0.22320567094 0.22053894841 
0.21786578631 0.21520591832 0.21257888809 0.21000385032 0.20749939718 0.20508341585 0.20277298111 0.28242181336 0.28164081717 
0.28081440765 0.2799433351 0.27902942097 0.27807553341 0.27708552919 0.27606416695 0.27501699796 0.273950242 0.27287065629 
0.27178540594 0.27070194357 0.26962790564 0.26857103115 0.26753910739 0.25307409433 0.25259607109 0.25215076911 0.25173881703 
0.2513616965 0.25102170492 0.25072189917 0.25046602682 0.25025845023 0.25010406743 0.25000823193 0.24997667149 0.25001540464 
0.25013065234 0.2503287416 0.25061599802 0.28792243815 0.28684945288 0.2857262677 0.2845619855 0.28336559719 0.28214584149 
0.28091108148 0.27966920074 0.27842752153 0.27719274805 0.27597093761 0.27476750262 0.27358724576 0.27243442967 0.27131288152 
0.27022613059 0.2772150245 0.27606446723 0.27492942571 0.2737950746 0.27264789663 0.2714759513 0.27026907704 0.26901902957 
0.26771956148 0.26636645091 0.26495748786 0.26349242759 0.26197292054 0.26040242778 0.25878612993 0.25713083648 0.26266142666 
0.26187615393 0.26115102975 0.26048324008 0.25987039571 0.25931076393 0.25880345902 0.25834858374 0.25794731738 0.25760194881 
0.25731585515 0.25709342944 0.25693996186 0.25686148061 0.25686455912 0.25695609708 0.25715503376 0.25608512895 0.25490903384 
0.25362749086 0.25224289828 0.2507593598 0.24918269444 0.24752040752 0.24578162552 0.24397699924 0.2421185808 0.24021968122 
0.23829471515 0.23635903975 0.23442879351 0.23252073982 0.2266574669 0.2264395566 0.2261232558 0.22571204533 0.22521058405 
0.22462460118 0.22396077307 0.22322659069 0.22243022461 0.22158039397 0.22068624608 0.2197572523 0.21880312538 0.21783376195 
0.21685921229 0.21588967771 0.24904787021 0.25005325257 0.25097636322 0.25181743214 0.2525781914 0.25326177702 0.25387259213 
0.2544161383 0.25489882329 0.25532775461 0.25571052933 0.25605503069 0.25636924206 0.25666108757 0.25693830729 0.25720837245 
0.25791316304 0.25797100685 0.25792835154 0.25778386123 0.25753742296 0.25719015965 0.25674442346 0.25620377245 0.2555729338 
0.25485775724 0.25406516254 0.25320308482 0.25228042109 0.25130698057 0.25029344092 0.24925131085 0.25413423845 0.2524254534 
0.25058452885 0.24862024707 0.24654313393 0.24436530476 0.24210028498 0.23976281209 0.23736862616 0.23493425641 0.2324768114 
0.23001378025 0.22756285148 0.22514175509 0.22276813173 0.22045943077 0.30582318038 0.3045651987 0.30327087253 0.30194366789 
0.30058720927 0.2992052327 0.2978015286 0.29637987812 0.29494398839 0.29349743318 0.29204360624 0.29058569485 0.28912668001 
0.28766936876 0.28621646211 0.28477065972 0.17867938861 0.17771044361 0.17669687038 0.17564529621 0.17456310942 0.17345833977 
0.17233952277 0.17121555332 0.1700955349 0.16898863088 0.16790392474 0.16685029575 0.16583631572 0.1648701717 0.1639596174 
0.16311195483 0.24658980625 0.24696449679 0.24726215466 0.24748976999 0.24765580555 0.24777011202 0.24784382165 0.24788922162 
0.24791960827 0.24794912358 0.24799257476 0.24806523826 0.24818264857 0.24836037242 0.24861376848 0.24895773268 0.27958376569 
0.27847815406 0.27740059056 0.27635397746 0.27534135587 0.27436584326 0.27343055974 0.27253854738 0.27169268809 0.27089562563 
0.27014969756 0.26945688292 0.2688187708 0.26823655455 0.26771105511 0.26724277567 0.26212545463 0.26234468268 0.26250177083 
0.2626025183 0.26265364113 0.26266260822 0.26263745671 0.26258659422 0.26251859615 0.26244200738 0.26236515732 0.26229599727 
0.2622419677 0.26220990175 0.26220596911 0.26223566209 0.26326511196 0.26342292854 0.2635512509 0.26364839279 0.26371319489 
0.26374495823 0.26374336394 0.26370838825 0.26364022234 0.26353920653 0.26340578745 0.26324050534 0.26304401664 0.26281715475 
0.26256102871 0.26227715711 0.28521634201 0.28475907049 0.28422464021 0.28361969849 0.28295106249 0.28222555087 0.28144983459 
0.28063031234 0.27977301482 0.27888354145 0.27796703174 0.27702817277 0.27607124311 0.27510019235 0.27411875419 0.27313058987 