# vtk DataFile Version 5.1
vtk output
ASCII
DATASET POLYDATA
POINTS 252 float
-0.238613 -0.227167 -0.361208 -0.323333 -0.210005 -0.378412 -0.303536 -0.277885 -0.389991 
-0.274903 -0.187204 -0.352548 -0.194801 0.113083 -0.429024 -0.183567 0.169395 -0.404755 
-0.229092 -0.28272 -0.302979 -0.155725 0.129479 -0.34076 -0.276405 -0.27701 -0.255231 
0.26191 -0.582803 -0.234645 -0.247579 0.109009 -0.341513 0.090596 -0.180197 -0.303694 
-0.33559 -0.247578 -0.335718 0.201558 -0.548014 -0.183564 -0.191104 0.087368 -0.359161 
-0.189516 -0.195967 -0.205045 0.133734 -0.133667 -0.260025 -0.169735 0.176869 -0.33034 
0.054526 -0.136844 -0.27346 0.300713 -0.493679 -0.150518 0.046055 -0.208688 -0.257812 
-0.243707 -0.204643 -0.179795 0.081017 -0.129601 -0.235314 0.029698 0.253202 -0.297237 
0.27409 -0.595753 -0.164095 0.044776 -0.31254 -0.190579 0.029354 -0.237464 -0.172681 
-0.264696 0.177595 -0.349863 0.123851 -0.251737 -0.224289 0.235368 -0.48386 -0.162412 
-0.234778 0.227729 -0.263068 0.075681 -0.341151 -0.145588 -0.211409 0.164884 -0.23358 
-0.194231 -0.276222 -0.187798 -0.253112 0.145224 -0.2304 0.025758 0.352561 -0.192603 
0.294054 -0.523646 -0.07851 0.063241 0.224136 -0.25033 0.092458 -0.252282 -0.131269 
0.064634 0.320103 -0.273339 -0.157312 -0.154962 -0.118801 0.245531 -0.605205 -0.163842 
-0.226236 -0.251861 -0.127165 -0.120242 -0.222204 -0.145149 -0.179313 -0.203861 -0.056422 
0.202126 -0.422503 -0.035437 -0.090629 -0.237142 -0.081395 0.111999 0.267368 -0.27307 
-0.289647 0.190278 -0.192998 -0.192939 0.117197 -0.071571 0.402386 0.416822 -0.201367 
0.44054 0.388174 -0.187557 -0.268657 0.226496 -0.19041 0.017121 0.334087 -0.114335 
-0.169271 0.215406 -0.087956 0.225582 -0.481885 -0.023064 0.049242 -0.245572 -0.115717 
0.326268 0.383448 -0.16614 0.119694 -0.289332 -0.139558 -0.147891 0.129599 -0.110957 
0.289135 -0.455811 -0.049948 -0.165907 0.202913 -0.154581 0.097742 -0.317531 -0.047887 
-0.541 -0.001457 -0.10559 0.123265 0.006848 -0.096173 0.058989 0.297774 -0.129099 
0.106365 0.322888 -0.119671 0.116408 -0.107466 -0.068747 -0.050585 -0.047258 -0.080231 
-0.704163 -0.051198 -0.065953 -0.4802 -0.128559 -0.043578 0.051314 -0.139609 -0.050395 
0.083171 0.387133 -0.105101 0.024322 -0.322528 -0.095692 0.255067 0.069851 -0.091715 
-0.356359 -0.042593 -0.086894 0.012165 -0.254192 -0.042337 -0.078421 -0.115723 -0.051451 
-0.20149 0.178842 -0.046024 0.371196 0.303696 -0.084059 -0.114762 -0.152813 -0.078133 
0.286701 -0.061277 -0.075217 -0.036075 -0.167499 -0.022055 -0.134656 -0.004217 -0.065943 
-0.634212 -0.11019 -0.040436 0.372532 0.329322 -0.188804 0.053667 -0.186939 -0.010783 
0.285884 -0.391827 0.036521 -0.113542 0.078535 -0.071261 0.185882 0.109252 -0.089175 
0.239718 -0.179476 0.018038 0.56251 -0.085764 -0.020052 -0.128298 -0.144171 0.013289 
-0.52365 0.113485 -0.077942 0.778012 0.370756 -0.097044 -0.117778 -0.247256 -0.033762 
-0.268418 -0.066048 -0.042863 0.241441 -0.413247 -0.061586 0.101696 -0.230146 0.020177 
0.343151 -0.122654 0.03453 0.525192 0.035029 -0.047051 0.376747 -0.061594 -0.016172 
-0.679336 0.051309 -0.08627 0.048473 -0.295748 0.014811 0.223922 -0.282122 0.036423 
0.432013 -0.181586 0.00446 0.759089 0.318746 -0.126776 -0.629526 0.156749 -0.029221 
0.144195 -0.203705 0.043011 0.425678 -0.028384 -0.035495 0.010719 0.094754 -0.093229 
0.697313 0.308725 -0.083046 0.182393 -0.306664 0.065683 0.361785 0.41649 -0.128522 
-0.366948 -0.1512 0.022485 0.271949 -0.347571 -0.001909 -0.600208 -0.156167 0.037687 
-0.351181 0.06684 -0.079646 0.37953 0.036698 -0.026708 0.255359 -0.298158 0.069372 
-0.205325 0.011158 -0.022832 0.183726 -0.163393 -0.025977 -0.822276 -0.034535 0.001183 
-0.733076 -0.119333 0.04188 0.045132 0.392376 -0.140495 -0.450907 0.15917 -0.029296 
-0.064668 -0.181454 0.029705 0.72617 0.205634 -0.005738 0.795283 0.296436 -0.07673 
0.201379 -0.407548 0.045896 0.027558 0.295712 0.02792 0.074172 -0.247884 0.072153 
0.379705 -0.186301 0.082379 0.355161 0.338026 -0.012864 0.317629 0.245587 -0.047488 
0.258269 -0.405213 0.061174 0.498863 0.128538 -0.03295 0.36025 0.083807 0.01394 
0.288221 0.308158 -0.070293 0.099534 0.180871 -0.017018 -0.250563 -0.108483 0.036835 
0.56041 -0.16091 0.026437 -0.193912 -0.077556 0.009208 0.018283 0.215068 0.030097 
0.76745 0.32539 -0.015912 0.302767 0.130918 -0.025944 0.07497 0.222043 -0.015401 
0.038921 0.15774 -0.049092 -0.148632 0.110255 0.01543 -0.177461 -0.03957 0.079895 
0.015463 -0.203924 0.066137 -0.071086 0.145005 -0.030166 0.216686 0.171486 -0.022276 
0.716722 0.349471 -0.047226 0.628349 -0.101986 0.108819 0.683278 0.232001 -0.037034 
0.740155 0.224387 0.026733 -0.503462 -0.16368 0.103795 -0.066412 0.128822 0.057548 
0.236155 0.285102 -0.012174 0.253542 -0.167783 0.069697 0.019449 0.132534 0.065799 
0.6169 0.154392 0.017904 -0.857876 0.048877 0.021182 -0.185648 0.060399 0.03416 
0.629335 -0.066135 0.033932 0.320352 0.226976 0.01999 0.141613 -0.179696 0.089133 
0.233935 -0.281912 0.124064 0.55496 0.202111 0.021653 0.621711 0.079291 -0.003568 
-0.537895 -0.128745 0.169633 -0.324122 -0.140834 0.08358 -0.76008 0.148378 0.008741 
0.426817 0.192667 0.036268 -0.285243 0.121415 -0.013716 0.280221 0.165991 0.01258 
0.197533 -0.311261 0.119425 0.647633 0.141042 0.078817 -0.528245 0.19482 0.017718 
0.201165 0.133753 0.06857 0.110569 0.241055 0.029886 -0.251843 0.141865 0.083304 
0.03188 0.199079 0.009385 0.329187 0.063897 0.069369 -0.391718 0.181825 0.036074 
-0.507951 0.208433 0.094869 0.283572 0.243935 0.053715 -0.129063 -0.137673 0.081351 
0.497456 -0.219541 0.084454 0.297194 0.343515 -0.006338 0.651929 0.253608 0.028676 
0.116937 0.15122 0.0611 0.188096 -0.145097 0.112788 0.2411 0.25217 0.043272 
-0.042192 -0.115542 0.124963 0.319014 -0.074036 0.100962 0.695426 0.235303 0.069242 
0.776301 -0.115604 0.108662 0.854101 -0.107945 0.130131 -0.696295 0.190143 0.060292 
-0.098516 0.008272 0.117175 -0.703898 -0.112428 0.147812 0.077958 0.294238 0.037988 
0.664032 -0.093338 0.122212 0.420596 -0.163134 0.152779 -0.226802 -0.0688 0.146444 
0.08285 0.093337 0.101584 0.057458 0.163857 0.090802 0.137923 -0.075996 0.137152 
0.734405 -0.059243 0.123796 -0.869135 0.074405 0.116201 0.244529 0.036432 0.108548 
0.534039 -0.171274 0.144691 0.578292 -0.074601 0.177991 0.661726 -0.017793 0.093076 
-0.84122 -0.041401 0.114706 0.365361 0.112727 0.112973 0.823809 -0.198872 0.137886 
-0.342269 0.178601 0.115987 -0.193677 0.05522 0.120723 0.500873 0.22184 0.087432 
0.627301 0.217157 0.08527 0.637751 0.001566 0.151124 0.729136 -0.14217 0.172832 
0.774653 -0.056971 0.172913 -0.476043 0.180673 0.18032 0.883491 -0.192382 0.157775 
0.368482 -0.105763 0.157164 -0.408641 -0.113152 0.182562 0.447952 0.180696 0.138765 
0.480707 -0.109107 0.187082 0.390401 0.061288 0.167004 -0.788947 0.156785 0.11737 
0.62512 0.088015 0.153322 0.664728 -0.029235 0.194508 0.799057 -0.113609 0.213834 
-0.303083 -0.025221 0.208681 0.540672 0.160843 0.168463 -0.328733 0.133584 0.183183 
-0.644403 0.166665 0.196991 0.646195 -0.084081 0.195104 -0.786083 0.075978 0.211103 
0.512789 0.035636 0.20314 -0.57986 -0.096332 0.205656 -0.774113 -0.037225 0.193482 
-0.423215 -0.016159 0.245354 -0.640443 -0.018743 0.241109 -0.272485 0.062454 0.202084 
-0.423485 0.075938 0.243174 -0.698726 0.040714 0.238926 -0.561844 0.063167 0.258813 

POLYGONS 501 1500
OFFSETS vtktypeint64
0 3 6 9 12 15 18 21 24 
27 30 33 36 39 42 45 48 51 
54 57 60 63 66 69 72 75 78 
81 84 87 90 93 96 99 102 105 
108 111 114 117 120 123 126 129 132 
135 138 141 144 147 150 153 156 159 
162 165 168 171 174 177 180 183 186 
189 192 195 198 201 204 207 210 213 
216 219 222 225 228 231 234 237 240 
243 246 249 252 255 258 261 264 267 
270 273 276 279 282 285 288 291 294 
297 300 303 306 309 312 315 318 321 
324 327 330 333 336 339 342 345 348 
351 354 357 360 363 366 369 372 375 
378 381 384 387 390 393 396 399 402 
405 408 411 414 417 420 423 426 429 
432 435 438 441 444 447 450 453 456 
459 462 465 468 471 474 477 480 483 
486 489 492 495 498 501 504 507 510 
513 516 519 522 525 528 531 534 537 
540 543 546 549 552 555 558 561 564 
567 570 573 576 579 582 585 588 591 
594 597 600 603 606 609 612 615 618 
621 624 627 630 633 636 639 642 645 
648 651 654 657 660 663 666 669 672 
675 678 681 684 687 690 693 696 699 
702 705 708 711 714 717 720 723 726 
729 732 735 738 741 744 747 750 753 
756 759 762 765 768 771 774 777 780 
783 786 789 792 795 798 801 804 807 
810 813 816 819 822 825 828 831 834 
837 840 843 846 849 852 855 858 861 
864 867 870 873 876 879 882 885 888 
891 894 897 900 903 906 909 912 915 
918 921 924 927 930 933 936 939 942 
945 948 951 954 957 960 963 966 969 
972 975 978 981 984 987 990 993 996 
999 1002 1005 1008 1011 1014 1017 1020 1023 
1026 1029 1032 1035 1038 1041 1044 1047 1050 
1053 1056 1059 1062 1065 1068 1071 1074 1077 
1080 1083 1086 1089 1092 1095 1098 1101 1104 
1107 1110 1113 1116 1119 1122 1125 1128 1131 
1134 1137 1140 1143 1146 1149 1152 1155 1158 
1161 1164 1167 1170 1173 1176 1179 1182 1185 
1188 1191 1194 1197 1200 1203 1206 1209 1212 
1215 1218 1221 1224 1227 1230 1233 1236 1239 
1242 1245 1248 1251 1254 1257 1260 1263 1266 
1269 1272 1275 1278 1281 1284 1287 1290 1293 
1296 1299 1302 1305 1308 1311 1314 1317 1320 
1323 1326 1329 1332 1335 1338 1341 1344 1347 
1350 1353 1356 1359 1362 1365 1368 1371 1374 
1377 1380 1383 1386 1389 1392 1395 1398 1401 
1404 1407 1410 1413 1416 1419 1422 1425 1428 
1431 1434 1437 1440 1443 1446 1449 1452 1455 
1458 1461 1464 1467 1470 1473 1476 1479 1482 
1485 1488 1491 1494 1497 1500 
CONNECTIVITY vtktypeint64
154 214 213 205 213 231 248 182 239 
241 224 236 224 218 236 219 226 239 
233 242 240 238 232 243 230 232 238 
248 239 249 239 226 249 249 226 251 
226 240 251 242 250 240 234 238 243 
237 248 246 246 248 249 240 250 251 
250 247 251 246 229 237 246 249 251 
247 244 246 247 246 251 245 244 247 
242 245 250 245 247 250 235 241 236 
132 205 228 196 132 228 205 189 213 
132 189 205 189 154 213 198 218 224 
218 198 199 218 199 227 216 123 202 
116 171 202 123 116 202 114 172 229 
229 172 206 172 140 206 195 193 209 
193 196 209 193 160 196 210 198 204 
199 198 210 206 140 149 149 188 201 
201 188 195 196 212 209 154 215 204 
154 165 215 99 132 196 63 102 93 
117 63 93 110 83 88 110 68 83 
68 110 64 89 64 110 74 64 89 
118 74 145 107 102 173 93 102 107 
117 93 125 59 88 49 88 59 151 
110 88 151 89 110 147 74 89 152 
48 49 78 61 54 59 151 59 54 
111 106 155 138 85 79 35 53 124 
150 131 167 192 203 208 186 179 200 
209 212 207 195 167 193 114 229 157 
160 193 168 167 177 168 167 168 193 
195 150 167 188 150 195 174 230 221 
226 186 240 200 240 186 178 197 222 
221 238 222 178 222 238 234 178 238 
238 221 230 182 219 239 185 186 219 
219 186 226 200 233 240 215 178 234 
174 217 230 230 217 232 220 182 248 
242 233 211 223 215 234 217 184 232 
204 215 210 211 163 216 149 220 206 
149 164 220 164 149 201 184 196 232 
196 184 212 164 182 220 148 164 201 
148 201 158 207 158 201 207 161 158 
180 207 212 212 184 180 184 176 180 
137 145 184 137 184 217 215 170 178 
162 178 170 233 173 211 173 163 211 
173 233 200 182 185 219 182 175 185 
161 207 208 143 161 208 183 161 143 
184 145 176 174 137 217 164 175 182 
175 125 185 158 151 148 152 139 180 
89 139 152 89 147 139 145 152 176 
145 74 152 118 137 174 136 118 174 
136 174 169 162 136 169 170 136 162 
179 107 200 183 146 139 143 146 183 
159 138 152 134 152 138 152 134 176 
176 134 166 162 155 127 53 143 130 
143 65 146 181 66 203 146 66 181 
146 65 66 138 79 134 79 133 166 
166 134 79 111 191 153 111 155 191 
128 144 156 127 106 128 124 53 130 
66 72 203 57 159 190 57 138 159 
53 65 143 106 127 155 16 18 22 
207 201 209 204 198 224 201 195 209 
157 229 171 216 202 245 206 220 248 
211 245 242 211 216 245 210 223 225 
225 223 235 223 210 215 223 234 243 
235 223 243 214 235 243 235 214 241 
231 214 243 232 228 243 196 228 232 
206 248 237 210 225 199 199 225 236 
227 199 236 225 235 236 154 204 241 
241 204 224 214 154 241 231 213 214 
205 231 228 243 228 231 229 206 237 
171 229 246 244 171 246 244 202 171 
202 244 245 218 227 236 27 10 48 
17 30 32 7 17 32 14 7 32 
23 47 37 47 23 39 41 9 24 
9 41 13 24 9 19 9 13 29 
9 29 19 8 6 33 2 8 12 
2 6 8 21 1 12 3 1 21 
0 3 15 18 11 20 28 11 16 
11 18 16 27 4 10 7 5 17 
4 7 14 5 30 17 5 27 30 
2 0 6 2 12 1 1 3 0 
2 1 0 5 4 27 4 14 10 
4 5 7 47 72 66 85 138 57 
79 51 133 94 106 153 106 94 128 
51 113 133 51 50 113 45 13 55 
36 60 87 36 19 60 60 97 115 
60 19 97 73 62 103 42 95 44 
33 46 95 56 73 76 95 46 82 
43 82 46 33 43 46 21 44 40 
43 40 80 43 80 82 63 75 70 
63 69 102 55 41 36 31 62 73 
42 33 95 34 59 49 52 48 78 
175 120 117 120 83 142 122 69 123 
147 183 139 107 173 200 147 158 161 
183 147 161 147 110 151 147 151 158 
151 54 148 49 88 148 49 148 78 
54 78 148 117 125 175 93 107 125 
125 107 179 100 136 170 136 100 118 
118 145 137 88 120 148 148 120 164 
120 175 164 173 102 163 215 165 170 
91 100 170 96 120 142 163 122 216 
165 91 170 140 96 142 140 142 149 
122 123 216 91 165 141 141 165 154 
32 61 59 54 52 78 30 52 54 
30 54 61 37 65 53 37 66 65 
85 51 79 72 35 124 39 35 72 
47 39 72 50 57 113 50 85 57 
85 50 51 41 55 13 41 24 36 
45 97 13 97 29 13 19 29 97 
8 33 42 26 25 73 26 73 56 
25 31 73 31 58 62 31 28 58 
44 21 42 43 33 15 38 26 56 
22 26 38 43 15 40 48 34 49 
58 16 38 15 21 40 38 16 22 
48 10 34 34 32 59 14 32 34 
32 30 61 30 27 52 27 48 52 
23 53 35 23 37 53 37 47 66 
39 23 35 24 19 36 25 28 31 
11 28 25 21 12 42 12 8 42 
6 15 33 20 25 26 20 11 25 
58 28 16 15 3 21 22 18 26 
20 26 18 10 14 34 6 0 15 
94 153 144 128 94 144 72 124 130 
104 119 115 101 105 99 99 105 132 
99 196 160 142 92 188 142 188 149 
114 140 172 116 114 157 116 157 171 
123 84 116 141 154 189 105 141 189 
132 105 189 90 99 160 119 90 160 
98 108 131 131 108 167 82 150 126 
188 126 150 92 126 188 119 160 168 
108 112 167 167 112 177 150 103 131 
87 115 119 87 119 168 112 129 177 
129 135 177 135 87 168 177 135 168 
113 57 190 133 113 190 55 135 129 
45 129 112 45 55 129 60 115 87 
97 112 104 97 45 112 104 115 97 
76 103 150 76 73 103 103 62 131 
62 98 131 58 98 62 58 38 98 
92 95 126 44 95 92 95 82 126 
86 76 150 82 86 150 86 56 76 
108 71 121 98 71 108 86 71 98 
98 38 86 38 56 86 121 112 108 
121 104 112 104 121 90 104 90 119 
84 70 116 70 114 116 114 96 140 
77 92 142 77 80 92 80 44 92 
77 71 82 68 71 77 82 80 77 
71 86 82 105 91 141 69 84 123 
153 106 111 36 135 55 36 87 135 
80 40 44 71 67 121 67 81 121 
121 81 90 90 81 99 105 109 91 
63 70 84 70 75 114 114 75 96 
83 77 142 68 77 83 68 67 71 
99 81 101 109 105 101 109 100 91 
163 102 122 102 69 122 75 117 120 
96 75 120 88 83 120 81 64 74 
81 67 64 81 74 118 109 101 118 
101 81 118 100 109 118 63 84 69 
64 67 68 63 117 75 207 192 208 
203 72 130 128 156 127 185 125 179 
155 162 169 153 191 197 144 153 197 
166 133 187 133 190 187 190 159 194 
187 190 194 156 144 197 197 191 222 
155 169 191 191 169 221 222 191 221 
169 174 221 159 180 194 194 180 187 
139 146 181 192 139 181 192 181 203 
130 143 208 203 130 208 185 179 186 
162 127 178 127 156 178 178 156 197 
176 166 187 176 187 180 152 180 159 
180 192 207 180 139 192 
POINT_DATA 252
SCALARS k float
LOOKUP_TABLE default
0.787886 1.65243 2.14922 0.703508 2.51521 1.16346 0.375833 0.821442 0.160111 
2.78788 0.497126 1.44438 0.815582 0.953304 0.924479 -0.713733 2.05342 0.333782 
1.55303 0.717646 0.201627 -0.0931655 0.725976 2.3918 0.578476 0.596932 -0.203587 
0.738708 0.352881 0.329421 -0.0834024 0.810299 -1.43542 -0.228337 -0.581078 0.102479 
0.276252 1.3124 -1.01341 0.811933 0.388839 1.12761 0.271753 0.187285 -0.148586 
-0.229009 0.280323 1.65915 0.687394 -0.119582 1.79518 2.12117 0.599341 -0.26463 
0.198343 -0.00934339 -0.923174 0.628329 -0.104743 -0.873957 -0.265761 0.290847 0.460682 
0.132927 0.0255692 -1.24268 -0.540019 0.0353594 0.0603107 0.228256 0.168013 -0.0849104 
0.807632 0.39887 0.236752 0.20708 0.195418 -1.47041 0.44073 -0.484489 -1.02743 
0.27868 -1.32276 0.116104 0.112978 1.24391 -2.81876 0.265782 -1.98493 0.130102 
-0.593564 0.235514 -1.76712 0.114591 2.33197 0.59977 0.112525 -0.495369 -1.383 
-1.83384 0.165335 -0.508124 0.258161 0.403983 -1.49328 0.644353 1.54997 0.0849994 
-1.93593 0.0578822 0.132884 0.553519 -0.627816 0.585899 0.157534 0.316014 0.12623 
0.189808 -0.714196 -0.48965 -1.32123 -0.320071 0.428976 0.237429 1.08489 0.0742464 
-0.935227 0.158907 0.893951 0.229926 0.672645 0.33332 0.604802 0.492982 -0.150739 
0.300256 0.261457 -1.52672 -0.52424 -1.57528 0.00429261 0.343996 -1.90375 -0.453638 
0.537756 0.0249377 -1.482 -0.575107 -1.69303 -2.26001 -1.40973 -1.37091 -2.48016 
0.590364 -0.849894 -0.657421 0.309548 0.183127 0.277569 0.182116 -1.01338 -1.14585 
-1.16702 0.656401 -2.73918 0.205289 0.275225 -1.12125 0.45426 -0.564421 0.271317 
0.0118973 0.177958 0.309488 0.65383 0.221081 -2.46783 0.548694 -1.31105 0.093739 
-1.21454 -0.17018 0.343864 -0.618862 -1.48861 0.0725631 0.125968 0.368546 0.511403 
0.854235 0.403968 -0.863721 -0.887922 -0.432994 0.265313 0.199246 -1.40582 0.310834 
0.130549 1.19294 0.157905 0.240698 0.180087 0.545373 -0.984512 0.296041 0.484989 
-0.219737 0.235924 0.10279 -0.473471 0.806815 0.0848684 0.332035 -0.627207 -1.19576 
0.544329 0.217597 1.20587 0.156179 0.395826 0.130352 -0.324762 -0.710769 -0.0282699 
0.229258 0.148777 2.98913 0.348691 0.126094 0.394589 0.167785 0.236104 0.370294 
0.253529 -0.136915 0.782195 0.118855 0.272851 0.152571 0.244389 -0.136548 0.480664 
-0.0260293 0.116249 0.286385 0.135422 0.090894 0.331247 0.104649 0.0607966 0.155647 

FIELD FieldData 7
h 1 252 float
-0.34333 4.56256 4.81684 -2.94038 2.14718 -0.0998316 0.0877934 -1.3135 1.79231 
-0.143259 2.11193 1.19927 2.56029 -0.455118 -3.79467 -1.70001 -0.103762 0.549079 
-1.14007 2.0097 0.311251 -6.2565 0.143951 0.048946 0.703508 3.00749 1.48364 
4.15934 5.37865 -1.72569 0.544968 5.19101 -0.820993 3.47578 -1.47774 3.18919 
1.47288 -0.970403 -0.129589 -0.323514 -1.79248 1.49966 1.02357 -1.24572 1.7726 
0.166746 1.45823 -0.984808 3.60197 -1.42781 0.180651 3.61047 1.38946 2.63023 
1.41909 1.37392 -4.87611 2.75266 -1.20018 -1.55475 2.65384 2.11885 2.99727 
2.16294 0.00718758 -2.10217 -3.0101 -0.166553 -0.316429 5.33579 2.01026 -0.245179 
3.93111 3.0629 0.178678 -0.367445 1.21436 -0.198762 1.6742 6.19879 -1.96911 
0.161548 0.598742 -0.55712 5.66806 -0.846071 -1.46702 2.66438 -0.0454601 0.411545 
-0.57237 1.00123 1.59094 4.09615 1.4271 1.36389 -0.398036 -0.762337 -1.39144 
0.189049 0.60431 -0.049606 5.24498 1.45344 -1.14472 0.0404715 -0.129012 5.30678 
1.03778 0.540519 0.0741021 2.19927 -0.591317 0.558898 2.95978 -1.01459 5.8008 
1.45439 -0.111709 -0.00582325 -1.13314 -0.424841 7.97917 6.68426 3.82959 4.66246 
0.856561 -0.138095 1.25782 2.25993 3.15005 1.33551 -0.0767071 1.31277 -0.846055 
1.05055 0.287406 0.159787 -0.349506 1.34849 -0.208368 0.732119 -0.313004 2.18671 
1.23866 0.70781 -2.74489 0.477322 1.25055 1.31115 1.09852 0.334855 -0.0197145 
4.39815 2.21655 0.475855 1.59703 5.53862 1.35972 1.38397 0.744168 1.49132 
-0.236494 7.61506 -0.105209 0.546613 1.34567 1.08908 1.10632 1.63412 0.462003 
4.88914 1.76965 6.00499 2.32718 -0.0470468 0.757406 1.55686 1.34603 5.32853 
1.02062 -0.408714 1.30506 1.95266 0.566702 2.06069 4.80658 0.927856 1.71896 
5.73412 1.25015 1.28485 1.21551 1.125 1.23659 1.70135 0.800034 1.37272 
0.104923 5.36719 5.51918 1.45626 5.16045 1.81309 -0.183913 1.40089 1.82155 
1.32496 1.50711 1.36614 -0.172511 12.9685 1.07186 1.99814 1.71812 -0.325312 
8.01094 0.877144 5.37046 1.5677 2.19084 2.1724 1.43362 0.639161 12.5509 
0.0615246 4.79003 0.492807 1.14796 3.77747 1.70321 1.48358 1.44395 7.69465 
1.55229 1.11666 1.78361 3.24248 1.82208 2.94033 6.19381 1.8062 7.67276 
1.66329 4.77677 6.71472 4.81077 5.15348 4.47567 4.58791 5.8129 5.35202 

kmin 1 252 float
1.06518 9.87776 11.6611 -0.539524 4.78567 0.869699 1.58387 0.377555 4.01562 
0.519936 4.61367 3.48106 5.7789 0.932435 -3.19866 0.77709 2.63106 1.56458 
-0.583011 5.5597 2.52314 0.99217 1.48784 1.25775 2.66921 7.67082 3.42781 
10.342 13.5953 0.0328112 1.75235 10.633 1.98304 9.09064 1.00369 7.83758 
1.88313 -0.0265612 1.06329 0.112504 -0.925051 3.11813 2.09522 0.390609 2.04666 
1.42807 3.78261 -0.475613 6.08047 0.840131 0.808005 8.40559 2.31995 4.78747 
3.17852 3.0633 -1.67433 6.96452 1.36596 0.407965 7.35189 7.67688 3.71678 
3.75283 0.580225 -0.928473 -0.587055 0.428951 0.482618 9.7887 3.26165 0.409988 
8.57167 6.39053 0.734755 0.841936 1.88488 0.516158 2.48822 14.259 -0.418775 
0.805725 2.30746 0.443987 10.2504 0.629894 -0.413608 7.03935 0.442744 0.728144 
0.0752939 1.79833 2.7002 7.7583 3.33929 3.25444 0.751967 0.406807 0.388618 
0.548228 1.2119 0.685992 9.50401 3.07219 -0.203169 0.700754 1.21285 9.69387 
3.84369 1.16397 0.565094 6.03556 3.50507 1.42243 5.68412 0.0238741 11.52 
2.54998 0.583838 1.87512 0.356329 0.0162568 12.5668 11.3941 8.05621 8.7228 
2.42302 -0.0179925 3.79625 4.357 4.45875 2.99881 1.0969 1.72025 -0.100312 
1.94391 0.944355 4.75839 -0.203835 3.39585 1.38561 1.05854 0.839144 2.46448 
2.74737 1.40532 -1.70677 1.43313 3.54251 3.41753 2.52107 2.29748 0.243736 
7.39623 3.75861 1.9502 2.36787 10.5721 3.20278 1.76969 1.51392 2.43077 
0.0624259 11.0065 0.265836 1.11179 2.49958 2.34375 1.55602 3.97211 1.04245 
9.1148 3.29159 9.67375 4.90979 1.75618 1.35827 2.84277 1.60119 9.53329 
2.28964 1.48981 2.47457 3.60958 1.55401 3.47858 8.5901 1.45109 3.91058 
10.4878 3.01542 2.16407 2.83282 2.42711 2.27203 3.45895 1.69872 2.08601 
1.13538 10.6783 8.93419 3.11693 8.49723 3.3509 0.694814 2.63334 3.90301 
2.88955 2.76425 2.80249 1.53277 15.5742 2.39419 3.18562 3.2298 0.984153 
10.4989 1.85316 12.775 2.54867 3.83564 4.22241 2.83349 1.07389 25.3966 
2.33411 8.59087 1.23837 2.00515 7.5252 3.25305 2.59422 2.45059 11.781 
2.78333 2.3572 3.54112 6.52562 3.28537 5.40559 10.0522 3.17885 11.3509 
2.80845 7.53004 9.93697 8.81901 8.22357 8.77277 8.21057 8.91363 8.55667 

kmax 1 252 float
-1.75184 -0.752645 -2.02745 -5.34124 -0.491315 -1.06936 -1.40828 -3.00456 -0.430997 
-0.806454 -0.389812 -1.08252 -0.658312 -1.84267 -4.39069 -4.1771 -2.83859 -0.466425 
-1.69713 -1.54031 -1.90064 -13.5052 -1.19994 -1.15985 -1.2622 -1.65585 -0.46052 
-2.02336 -2.83803 -3.48419 -0.662419 -0.251034 -3.62503 -2.13908 -3.95917 -1.4592 
1.06263 -1.91425 -1.32247 -0.759532 -2.6599 -0.118806 -0.0480758 -2.88204 1.49853 
-1.09458 -0.866145 -1.494 1.12346 -3.69575 -0.446704 -1.18465 0.45897 0.472992 
-0.340339 -0.315458 -8.07788 -1.4592 -3.76632 -3.51747 -2.0442 -3.43918 2.27777 
0.573052 -0.565849 -3.27586 -5.43315 -0.762058 -1.11548 0.882881 0.758867 -0.900346 
-0.709446 -0.264737 -0.377399 -1.57682 0.543836 -0.913683 0.860175 -1.86145 -3.51944 
-0.482629 -1.10997 -1.55823 1.0857 -2.32204 -2.52042 -1.71058 -0.533664 0.0949467 
-1.22003 0.204122 0.481668 0.434002 -0.485081 -0.526651 -1.54804 -1.93148 -3.17151 
-0.17013 -0.00328233 -0.785204 0.985948 -0.165311 -2.08628 -0.619811 -1.47088 0.919689 
-1.76812 -0.0829297 -0.41689 -1.63702 -4.6877 -0.304637 0.235444 -2.05305 0.0815638 
0.358798 -0.807257 -1.88677 -2.62261 -0.86594 3.39156 1.97445 -0.39702 0.602122 
-0.7099 -0.258197 -1.28061 0.16286 1.84134 -0.327785 -1.25031 0.905286 -1.5918 
0.157195 -0.369544 -4.43882 -0.495176 -0.698879 -1.80235 0.405702 -1.46515 1.90893 
-0.270044 0.0103035 -3.78301 -0.478485 -1.04141 -0.795235 -0.324031 -1.62777 -0.283165 
1.40008 0.674478 -0.998485 0.826201 0.5051 -0.483334 0.998248 -0.0255868 0.551872 
-0.535415 4.22361 -0.476254 -0.0185613 0.191766 -0.165598 0.656622 -0.703867 -0.118443 
0.663486 0.247714 2.33623 -0.255421 -1.85028 0.156541 0.270951 1.09086 1.12377 
-0.248411 -2.30724 0.135546 0.295742 -0.42061 0.642795 1.02307 0.404627 -0.472662 
0.980409 -0.515114 0.405627 -0.401796 -0.1771 0.201148 -0.0562541 -0.0986487 0.659424 
-0.925535 0.0561042 2.10417 -0.204408 1.82367 0.275287 -1.06264 0.16843 -0.259911 
-0.239623 0.249956 -0.0701997 -1.87779 10.3627 -0.250469 0.810669 0.206445 -1.63478 
5.52295 -0.0988747 -2.03411 0.58674 0.546049 0.122392 0.0337472 0.204432 -0.294887 
-2.21106 0.989199 -0.252757 0.290763 0.0297384 0.15338 0.372947 0.437307 3.60827 
0.321258 -0.123872 0.026103 -0.0406516 0.358801 0.475076 2.33542 0.433558 3.99459 
0.518126 2.02351 3.49246 0.802533 2.08338 0.178575 0.965253 2.71218 2.14736 

hks 16 252 double
0.92778994619 0.9392710171 0.95063262337 0.96186184451 0.97294547562 0.98386983636 0.99462059414 1.0051826067 1.0155397876 
1.025674998 1.0355699642 1.0452052232 1.0545600933 1.0636126689 1.0723398378 1.0807173167 0.922790816 0.93450929428 
0.94607988162 0.95749240362 0.96873628277 0.97980031117 0.99067244867 1.0013396507 1.0117877285 1.0220012434 1.0319634335 
1.0416561724 1.0510599562 1.0601539172 1.068915858 1.0773223059 0.93140055971 0.94306583856 0.95458919312 0.96596005816 
0.9771674603 0.98819979702 0.9990446392 1.0096885617 1.0201170048 1.030314168 1.0402629357 1.0499448337 1.0593400135 
1.0684272636 1.0771840409 1.085586523 0.89080857342 0.90226069969 0.9136565198 0.92497198022 0.93618325385 0.94726674913 
0.9581990959 0.96895711061 0.97951774378 0.98985801373 0.99995492997 1.0097854105 1.0193261969 1.0285537707 1.0374442751 
1.0459734443 0.89798413622 0.90871827839 0.91930012443 0.92971784788 0.9399588456 0.95000957839 0.95985544013 0.96948065663 
0.97886821402 0.98799981473 0.99685585849 1.0054154444 1.0136563902 1.0215552647 1.0290874285 1.0362270812 0.8932804794 
0.90375214107 0.91409975855 0.92430978457 0.93436781997 0.94425848523 0.95396531922 0.96347070595 0.97275582875 0.9818006496 
0.99058391067 0.99908315404 1.0072747554 1.0151339672 1.0226349678 1.029750912 0.85135662268 0.86358431254 0.87569891792 
0.88767617993 0.89949287383 0.91112674411 0.92255640538 0.93376121585 0.94472113035 0.9554165401 0.96582810596 0.97593659171 
0.98572270299 0.99516693693 1.0042494464 1.0129499221 0.88930862321 0.89951169409 0.90960741822 0.91958369191 0.92942701631 
0.93912241552 0.9486533923 0.95800191896 0.96714845942 0.97607201728 0.9847502041 0.99315932161 1.0012744518 1.0090695495 
1.016517532 1.023590363 0.81311055707 0.82531011645 0.8374248487 0.84942582038 0.86128522405 0.87297643337 0.88447400959 
0.89575366316 0.9067921755 0.91756728716 0.92805755928 0.9382422156 0.94810097249 0.95761386413 0.96676106969 0.97552274843 
0.86724104239 0.87340953009 0.87932176902 0.88497267186 0.89035640301 0.89546618242 0.90029413101 0.9048311595 0.90906690038 
0.91298968098 0.91658653449 0.91984324463 0.92274441911 0.92527358689 0.9274133142 0.92914533468 0.8132754661 0.82456407621 
0.83573031884 0.84674950268 0.85759732302 0.86824989519 0.8786837635 0.88887588599 0.89880359632 0.9084445445 0.91777661873 
0.92677785149 0.93542631297 0.94369999578 0.95157669485 0.95903388653 0.95462297505 0.96324644623 0.97152030525 0.97943211651 
0.98696927633 0.99411880448 1.0008671743 1.0072001854 1.0131028809 1.0185595096 1.02355353 1.0280676547 1.0320839282 
1.0355838362 1.038548439 1.0409585244 0.85882088918 0.87108821098 0.88323374773 0.89523431756 0.90706770768 0.91871259305 
0.93014842402 0.94135528998 0.95231376585 0.96300474849 0.97340928982 0.98350843248 0.99328305378 1.0027137222 1.0117805702 
1.0204631861 0.76972528268 0.77754969542 0.78508714917 0.79232385929 0.79924693385 0.80584418673 0.81210395057 0.81801489632 
0.82356586507 0.82874571677 0.83354319892 0.83794683766 0.84194485219 0.84552509298 0.8486750034 0.85138160374 0.83622408995 
0.84735202275 0.85833334259 0.86914953546 0.87978212113 0.89021257445 0.90042224359 0.91039226738 0.92010349373 0.92953640052 
0.93867101996 0.94748686733 0.95596287452 0.96407732886 0.97180781757 0.97913117821 0.72857158606 0.74092733753 0.75314987471 
0.76521378607 0.77709525458 0.78877200411 0.80022320251 0.81142932894 0.8223720131 0.83303385409 0.84339822667 0.85344908211 
0.86317075 0.87254774695 0.88156459687 0.89020566685 0.84548741834 0.85514368748 0.86442689342 0.87332153572 0.88181301154 
0.88988739872 0.8975312522 0.9047314212 0.91147489252 0.91774866361 0.92353964741 0.92883460945 0.93362013658 0.93788263557 
0.94160835931 0.94478345795 0.85847050002 0.86873112956 0.8789134621 0.88899962916 0.89897066822 0.9088065456 0.91848619729 
0.92798758394 0.93728775565 0.94636292176 0.95518852113 0.96373928856 0.97198931393 0.97991209109 0.98748055503 0.99466710635 
0.91286020957 0.92178128082 0.93035895547 0.93857892694 0.94642689458 0.95388840966 0.96094874917 0.9675928206 0.97380509923 
0.97956959772 0.98486986684 0.98968902504 0.99400981413 0.99781467763 1.0010858587 1.0038055143 0.77332930932 0.78060653509 
0.7876434469 0.79442688826 0.80094367381 0.80718049316 0.81312383171 0.81875990988 0.8240746408 0.82905360592 0.8336820468 
0.83794487128 0.84182667161 0.84531175261 0.84838416762 0.85102776092 0.92822526975 0.93710119982 0.94564424822 0.95383646967 
0.96166046403 0.96909919668 0.9761358329 0.98275359297 0.98893563335 0.99466495761 0.99992435878 1.0046963938 1.0089633893 
1.0127074761 1.0159106512 1.0185548634 0.73762978855 0.74990685025 0.76206632033 0.77408093786 0.78592501032 0.79757439948 
0.80900645837 0.82019992637 0.83113478957 0.84179211446 0.85215386294 0.86220269637 0.87192177619 0.88129456742 0.89030465115 
0.89893555065 0.83362426576 0.84255981604 0.85124705145 0.85965658587 0.8677604067 0.87553188655 0.88294576026 0.88997807333 
0.89660610858 0.90280829815 0.9085641276 0.91385403855 0.91865933593 0.92296210488 0.9267451415 0.92999190105 0.9128785951 
0.92286734135 0.93265090539 0.94221886109 0.95156034383 0.96066388031 0.96951724678 0.97810735773 0.98642018557 0.99444071035 
1.0021528977 1.0095397017 1.0165830899 1.0232640863 1.0295628286 1.0354586376 0.83551345015 0.84241523068 0.8490506463 
0.85540920467 0.86148054054 0.86725422419 0.87271958857 0.87786558 0.88268063564 0.88715258959 0.89126860793 0.89501515214 
0.89837796911 0.90134210566 0.90389194492 0.90601126168 0.83920638033 0.84933797366 0.85909364839 0.86845205848 0.87739359281 
0.88590017816 0.89395506878 0.90154263269 0.9086481441 0.91525758969 0.92135749532 0.92693477787 0.93197662565 0.93647040935 
0.94040362421 0.94376386323 0.76290749473 0.77295066824 0.78264504798 0.791969984 0.80090639237 0.80943661067 0.81754424029 