# vtk DataFile Version 5.1
vtk output
ASCII
DATASET POLYDATA
POINTS 252 float
0.80705 -0.39128 -0.012607 0.792975 -0.374237 -0.028961 0.790224 -0.37103 0.027299 
0.799999 -0.40534 0.029183 0.777158 -0.448557 -0.029344 0.751362 -0.493396 0.029007 
0.751494 -0.492708 -0.026722 0.724129 -0.330765 0.028722 0.728435 -0.536953 -0.014951 
0.762385 -0.458525 0.029064 0.712998 -0.533967 0.025973 0.709888 -0.528546 -0.026966 
0.672688 -0.483544 0.028927 0.64241 -0.477542 -0.029334 0.727491 -0.333366 -0.028653 
0.704712 -0.420929 -0.02946 0.675515 -0.358784 0.02914 0.654235 -0.498362 -0.024594 
0.645392 -0.276045 -0.02571 0.662161 -0.503025 0.021989 0.620173 -0.256755 0.028622 
0.606698 -0.467253 0.028696 0.636497 -0.286516 -0.029341 0.615047 -0.470997 -0.026068 
0.574919 -0.359293 0.029204 0.591455 -0.319938 -0.029479 0.542787 -0.422594 0.028748 
0.577341 -0.225378 -0.02798 0.563724 -0.437707 -0.028257 0.470465 -0.344627 -0.029554 
0.537849 -0.191122 -0.010117 0.580491 -0.22792 0.028863 0.485232 -0.145004 -0.029167 
0.493291 -0.3849 0.029019 0.516261 -0.209921 0.029531 0.505319 0.726762 0.025124 
0.50418 0.725434 -0.02338 0.496857 -0.387412 -0.028655 0.500032 -0.157786 0.029023 
0.469954 0.643323 -0.028836 0.470208 0.703973 -0.026765 0.434749 -0.335596 0.029297 
0.45523 -0.353418 -0.014568 0.49407 0.737108 0.001473 0.490901 -0.200304 -0.029454 
0.438026 0.565888 0.028471 0.452583 0.677599 0.028843 0.470365 0.644921 0.028973 
0.443315 -0.103331 0.028941 0.436396 -0.237843 0.029206 0.402407 0.597162 -0.029577 
0.399175 0.597393 0.0289 0.391239 0.591701 -0.020353 0.428362 -0.088977 -0.029361 
0.437512 0.565529 -0.028661 0.420687 -0.324967 -0.029852 0.39636 0.598899 0.023192 
0.404967 -0.218813 -0.02936 0.382692 -0.29044 0.027958 0.32907 -0.155996 0.029261 
0.396051 0.466967 -0.029396 0.417394 0.517382 -0.029578 0.377048 0.422383 0.028702 
0.376537 -0.032664 -0.027679 0.371246 -0.051328 -0.029572 0.344664 -0.254695 0.029037 
0.366454 0.395292 -0.028222 0.330601 0.309231 -0.026344 0.337062 0.504412 0.029113 
0.326685 0.301116 0.028747 0.322358 0.491679 -0.024934 0.367299 -0.022863 0.029244 
0.32291 -0.085534 -0.029417 0.415204 0.511584 0.029373 0.317511 0.327712 -0.029348 
0.353902 0.366479 0.028846 0.30395 0.46684 0.025283 0.342221 0.006045 -0.029545 
0.346008 -0.255989 -0.02929 0.357403 0.427178 -0.029126 0.308634 0.441559 -0.029554 
0.302754 0.056009 0.029166 0.311059 0.044484 -0.028255 0.276407 -0.185758 0.011945 
0.287895 -0.186743 0.029199 0.300999 -0.211788 -0.024886 0.293593 0.2208 -0.029172 
0.285902 0.424831 0.029396 0.28075 0.083186 -0.0292 0.276675 0.427628 0.019941 
0.239387 0.20886 -0.029574 0.270482 -0.134767 -0.029434 0.286546 0.3383 0.029392 
0.242213 0.070963 0.029139 0.291202 0.214097 0.029467 0.20525 0.236103 0.029231 
0.237835 -0.14312 -0.028896 0.285104 0.438791 -0.028168 0.239736 0.140423 -0.027403 
0.242183 0.001422 -0.029394 0.232583 0.363924 -0.02558 0.215389 0.313298 -0.029398 
0.286375 -0.057941 0.029225 0.240203 0.138122 0.02917 0.255525 -0.161876 0.028631 
0.228033 0.142128 -0.029232 0.243957 0.329754 -0.028883 0.19133 0.305644 -0.027378 
0.174291 -0.067944 0.029002 0.174562 -0.069064 -0.029286 0.169613 0.265235 0.029128 
0.206447 0.327964 0.02508 0.168261 0.274147 -0.029439 0.139469 0.299249 0.025052 
0.120343 -0.039812 -0.029385 0.126143 -0.10686 0.028362 0.123181 0.309229 -0.029216 
0.097373 0.23048 -0.029434 0.109331 -0.116299 -0.028729 0.084091 -0.125697 0.028799 
0.085596 0.328021 0.029104 0.07595 0.331247 -0.029528 0.042289 0.225528 0.029173 
0.023083 -0.141745 -0.01358 0.043413 -0.044695 0.029209 0.000853 -0.1429 0.029452 
0.106146 0.059389 0.029166 0.003434 0.290128 -0.029508 0.085882 0.082155 -0.029328 
0.057426 -0.134947 -0.026498 0.02832 0.341939 0.029077 -0.010653 0.343866 -0.029143 
-0.058541 -0.01971 -0.029325 0.02787 -0.116001 -0.029428 -0.045996 0.341412 0.029164 
-0.09182 0.111312 -0.029312 -0.050072 -0.136434 -0.029045 -0.0732 0.333821 -0.029076 
-0.071033 0.120986 0.029176 -0.075656 0.231529 -0.029327 -0.097835 -0.051615 0.029236 
-0.063586 -0.134225 0.026634 -0.119113 0.313192 -0.029337 -0.111151 -0.117077 -0.029336 
-0.092094 0.264166 0.029303 -0.152461 -0.089411 -0.029262 -0.120654 0.31259 0.028635 
-0.17384 0.273706 -0.029307 -0.123535 -0.109807 0.028916 -0.200103 0.241745 -0.029354 
-0.200536 0.243362 0.029232 -0.176592 -0.067532 0.02893 -0.174801 -0.068211 -0.029281 
-0.22201 -0.126837 -0.029275 -0.221094 -0.125534 0.027324 -0.232028 0.28154 0.027132 
-0.201609 0.05282 0.029203 -0.206654 -0.078913 0.028935 -0.259935 -0.173894 0.028251 
-0.227367 0.139234 -0.029335 -0.267077 0.326974 -0.008614 -0.272612 0.334535 0.028648 
-0.232845 0.28245 -0.029207 -0.271426 0.114392 -0.028486 -0.269754 0.232634 -0.029421 
-0.260092 0.2563 0.029185 -0.252352 0.004912 -0.029373 -0.26914 0.111812 0.029136 
-0.303036 0.373712 -0.023572 -0.314757 0.360294 -0.029344 -0.314317 -0.235877 0.029039 
-0.327843 -0.197525 -0.029423 -0.34392 0.235674 -0.029453 -0.310636 0.166442 -0.029306 
-0.320333 0.181521 0.028701 -0.301173 0.334528 0.029338 -0.332068 0.410738 0.02925 
-0.316755 -0.152508 0.029265 -0.310204 0.049686 0.02903 -0.315493 0.042824 -0.028811 
-0.308387 -0.229089 -0.027539 -0.355099 0.440344 -0.029421 -0.366999 0.455267 0.026871 
-0.399162 0.444261 0.029152 -0.361816 -0.28481 0.029212 -0.36722 -0.290889 -0.02563 
-0.380381 0.312688 -0.028957 -0.384181 -0.045993 0.029178 -0.364184 0.277488 0.029213 
-0.392862 0.337748 0.007238 -0.369987 -0.028671 -0.028322 -0.421555 -0.090373 -0.029204 
-0.377496 -0.284 -0.029444 -0.40258 0.501642 0.028745 -0.416946 -0.338456 -0.029545 
-0.347107 -0.090401 -0.029439 -0.403859 -0.326623 0.028729 -0.438003 -0.107798 0.029032 
-0.425691 -0.183456 0.02927 -0.408984 0.510287 -0.02893 -0.425031 0.405976 -0.029284 
-0.414493 0.384358 0.028413 -0.439799 0.5179 0.029353 -0.453634 -0.371475 -0.019565 
-0.454976 0.568988 -0.028859 -0.446681 -0.365335 0.022886 -0.436352 -0.346471 0.029425 
-0.465715 -0.137232 -0.028414 -0.482715 -0.396475 0.028928 -0.473667 0.50785 0.028922 
-0.471898 -0.189844 -0.029285 -0.450831 0.562879 0.028543 -0.481091 -0.152694 0.02886 
-0.508266 0.580056 0.028856 -0.56898 -0.351974 0.029236 -0.477726 0.517027 -0.029494 
-0.47261 -0.268336 0.029281 -0.449953 -0.356092 -0.029367 -0.515532 0.59685 -0.029459 
-0.499962 -0.411689 -0.028861 -0.543128 -0.444204 -0.029265 -0.561941 -0.356881 -0.029325 
-0.514833 0.648249 -0.026715 -0.541883 0.651157 0.027736 -0.532176 -0.203528 0.029148 
-0.550702 0.669401 -0.027025 -0.517721 0.651484 0.027398 -0.530538 -0.436134 0.029167 
-0.53409 -0.439109 -0.013757 -0.519724 -0.191767 -0.027556 -0.597574 -0.486615 -0.028833 
-0.595017 -0.259201 -0.029307 -0.522413 -0.253933 -0.029498 -0.625578 -0.285398 0.029222 
-0.60192 -0.489654 0.028828 -0.644085 -0.518588 -0.02927 -0.70365 -0.461158 0.029342 
-0.653392 -0.307857 -0.029444 -0.708608 -0.538765 -0.028712 -0.666679 -0.534918 0.029179 
-0.704041 -0.344901 0.029263 -0.696719 -0.554609 -0.000919 -0.708675 -0.538401 0.029164 
-0.709729 -0.348635 -0.019522 -0.744833 -0.373819 0.025148 -0.63693 -0.408645 -0.029341 
-0.767716 -0.389619 -0.028554 -0.754452 -0.467121 0.023732 -0.71695 -0.362405 -0.029222 
-0.773948 -0.435524 -0.029426 -0.792311 -0.404973 0.029153 -0.266439 -0.012964 0.029227 

POLYGONS 501 1500
OFFSETS vtktypeint64
0 3 6 9 12 15 18 21 24 
27 30 33 36 39 42 45 48 51 
54 57 60 63 66 69 72 75 78 
81 84 87 90 93 96 99 102 105 
108 111 114 117 120 123 126 129 132 
135 138 141 144 147 150 153 156 159 
162 165 168 171 174 177 180 183 186 
189 192 195 198 201 204 207 210 213 
216 219 222 225 228 231 234 237 240 
243 246 249 252 255 258 261 264 267 
270 273 276 279 282 285 288 291 294 
297 300 303 306 309 312 315 318 321 
324 327 330 333 336 339 342 345 348 
351 354 357 360 363 366 369 372 375 
378 381 384 387 390 393 396 399 402 
405 408 411 414 417 420 423 426 429 
432 435 438 441 444 447 450 453 456 
459 462 465 468 471 474 477 480 483 
486 489 492 495 498 501 504 507 510 
513 516 519 522 525 528 531 534 537 
540 543 546 549 552 555 558 561 564 
567 570 573 576 579 582 585 588 591 
594 597 600 603 606 609 612 615 618 
621 624 627 630 633 636 639 642 645 
648 651 654 657 660 663 666 669 672 
675 678 681 684 687 690 693 696 699 
702 705 708 711 714 717 720 723 726 
729 732 735 738 741 744 747 750 753 
756 759 762 765 768 771 774 777 780 
783 786 789 792 795 798 801 804 807 
810 813 816 819 822 825 828 831 834 
837 840 843 846 849 852 855 858 861 
864 867 870 873 876 879 882 885 888 
891 894 897 900 903 906 909 912 915 
918 921 924 927 930 933 936 939 942 
945 948 951 954 957 960 963 966 969 
972 975 978 981 984 987 990 993 996 
999 1002 1005 1008 1011 1014 1017 1020 1023 
1026 1029 1032 1035 1038 1041 1044 1047 1050 
1053 1056 1059 1062 1065 1068 1071 1074 1077 
1080 1083 1086 1089 1092 1095 1098 1101 1104 
1107 1110 1113 1116 1119 1122 1125 1128 1131 
1134 1137 1140 1143 1146 1149 1152 1155 1158 
1161 1164 1167 1170 1173 1176 1179 1182 1185 
1188 1191 1194 1197 1200 1203 1206 1209 1212 
1215 1218 1221 1224 1227 1230 1233 1236 1239 
1242 1245 1248 1251 1254 1257 1260 1263 1266 
1269 1272 1275 1278 1281 1284 1287 1290 1293 
1296 1299 1302 1305 1308 1311 1314 1317 1320 
1323 1326 1329 1332 1335 1338 1341 1344 1347 
1350 1353 1356 1359 1362 1365 1368 1371 1374 
1377 1380 1383 1386 1389 1392 1395 1398 1401 
1404 1407 1410 1413 1416 1419 1422 1425 1428 
1431 1434 1437 1440 1443 1446 1449 1452 1455 
1458 1461 1464 1467 1470 1473 1476 1479 1482 
1485 1488 1491 1494 1497 1500 
CONNECTIVITY vtktypeint64
76 97 89 46 40 56 46 43 40 
136 141 143 61 45 73 39 45 54 
129 119 123 118 115 119 71 77 82 
78 58 65 28 26 37 1 14 2 
2 0 1 11 10 19 8 10 11 
6 4 5 120 116 121 113 116 120 
124 126 138 126 122 138 110 120 122 
112 116 113 110 113 120 110 112 113 
141 148 143 141 140 148 124 138 140 
95 122 126 95 110 122 110 111 112 
100 107 111 92 110 95 89 100 111 
87 111 110 89 111 87 87 76 89 
87 68 76 73 68 87 76 56 52 
56 76 68 51 56 68 73 51 68 
73 45 51 47 46 51 47 51 45 
51 46 56 35 46 47 35 43 46 
125 124 140 141 125 140 136 125 141 
62 87 92 39 47 45 103 95 126 
94 92 95 94 69 92 69 75 92 
75 69 67 75 62 92 62 73 87 
60 73 62 119 125 123 119 124 125 
94 95 103 94 103 98 92 87 110 
124 108 126 126 93 103 119 115 124 
115 108 124 102 126 108 102 93 126 
81 88 103 102 81 93 81 103 93 
71 81 102 96 108 109 96 104 108 
104 102 108 81 71 82 96 83 104 
104 59 102 84 59 104 84 104 83 
65 84 83 85 65 83 65 59 84 
59 71 102 48 53 71 59 48 71 
65 49 59 48 59 49 38 48 49 
48 38 32 58 49 65 41 49 58 
55 41 58 34 38 49 30 38 34 
34 31 30 41 34 49 24 34 41 
37 33 42 24 31 34 37 26 33 
33 24 41 24 20 31 16 20 24 
28 21 26 26 24 33 21 24 26 
20 14 18 7 14 20 23 21 28 
12 24 21 24 12 16 7 20 16 
19 21 23 12 21 19 2 14 7 
3 7 16 2 7 3 10 12 19 
5 9 12 9 16 12 9 3 16 
5 12 10 6 5 8 8 5 10 
5 4 9 4 3 9 3 0 2 
0 3 4 117 128 135 132 145 152 
152 145 151 121 117 127 117 135 139 
132 152 166 166 152 153 153 154 158 
153 158 180 180 158 170 127 117 139 
166 153 195 153 180 171 153 171 195 
180 184 185 180 185 192 171 180 192 
192 185 194 194 185 196 194 203 217 
217 203 219 131 121 127 135 132 166 
171 192 210 192 194 217 217 219 221 
221 219 220 219 228 220 228 230 220 
127 139 142 137 127 142 139 135 159 
135 166 159 232 192 217 232 217 221 
221 220 245 230 228 234 220 230 245 
235 230 234 234 239 235 131 127 137 
142 139 147 147 139 149 139 159 149 
159 166 179 190 166 195 195 171 191 
191 171 210 210 192 232 245 230 235 
235 241 238 137 142 146 142 147 146 
149 159 164 163 159 179 167 179 178 
167 163 179 179 166 190 190 195 191 
191 210 207 191 207 212 207 210 229 
212 207 229 232 221 231 235 238 249 
155 149 162 162 149 164 164 159 173 
172 164 173 173 163 174 159 163 173 
229 210 232 229 232 231 237 231 221 
237 221 245 248 237 245 245 235 249 
173 174 172 233 231 237 237 248 243 
248 245 249 160 162 168 162 164 169 
164 172 169 244 243 246 243 248 246 
246 248 249 244 246 250 246 249 250 
249 247 250 168 162 169 168 169 181 
169 172 186 200 169 186 181 169 200 
168 181 176 186 189 200 176 181 182 
182 181 199 199 181 200 204 199 215 
199 200 215 222 204 218 218 204 215 
215 213 218 204 222 211 222 218 225 
218 213 225 187 190 191 6 8 11 
6 11 15 4 6 15 15 11 13 
1 4 15 14 1 15 11 19 17 
13 11 17 13 17 23 17 19 23 
13 23 28 14 15 22 18 14 22 
22 15 25 25 15 13 13 28 25 
27 18 22 20 18 31 18 27 31 
25 28 37 25 37 29 27 22 25 
29 37 42 31 27 30 44 27 25 
25 29 44 29 42 55 55 42 41 
30 27 32 38 30 32 32 27 44 
29 55 57 44 29 57 57 55 78 
55 58 78 48 32 53 32 44 57 
53 32 57 53 57 64 57 72 64 
72 57 78 85 78 65 71 53 63 
63 53 64 72 78 91 91 85 96 
78 85 91 63 64 77 71 63 77 
96 85 83 77 64 72 77 72 99 
82 77 99 72 91 99 109 91 96 
82 88 81 91 109 99 103 88 98 
82 99 88 88 99 105 99 109 114 
109 108 115 114 109 118 109 115 118 
98 88 105 105 99 128 114 118 133 
118 119 129 133 118 129 67 69 94 
74 67 86 67 94 86 86 94 98 
90 86 98 90 98 105 128 99 114 
133 129 123 60 62 66 60 66 79 
66 62 75 66 74 79 66 75 67 
66 67 74 86 90 101 90 105 117 
132 114 133 133 123 136 123 125 136 
60 61 73 54 45 61 60 79 80 
79 74 80 80 74 106 74 86 101 
106 74 101 105 128 117 114 132 128 
36 43 35 36 35 39 40 36 39 
43 36 40 39 35 47 39 50 40 
52 40 50 40 52 56 39 54 50 
54 61 50 61 60 80 50 61 80 
52 50 70 76 70 97 80 106 100 
80 100 97 89 97 100 100 106 101 
107 100 101 101 90 112 107 101 112 
111 107 112 112 90 117 133 136 132 
132 136 143 116 112 117 128 132 135 
132 143 145 116 117 121 145 148 151 
215 200 209 193 182 199 186 172 188 
174 188 172 161 160 168 237 243 240 
238 247 249 224 212 229 238 241 242 
235 239 241 219 208 228 203 208 219 
121 131 130 194 205 203 194 196 205 
170 184 180 152 151 153 143 148 145 
0 4 1 33 41 42 223 226 225 
225 213 223 213 226 223 211 226 213 
211 222 226 215 209 213 213 202 211 
199 204 211 200 201 209 183 209 201 
209 202 213 183 202 209 193 199 211 
193 211 202 183 193 202 183 182 193 
189 201 200 176 183 201 188 176 201 
176 182 183 188 201 189 175 176 188 
186 188 189 165 175 188 176 161 168 
161 176 175 247 236 250 236 244 250 
240 244 236 240 243 244 174 165 188 
165 161 175 160 155 162 161 155 160 
233 237 240 214 233 240 155 161 165 
238 242 247 242 236 247 236 214 240 
233 224 231 233 216 224 229 231 224 
167 165 174 163 167 174 150 155 165 
150 149 155 216 233 214 198 224 216 
198 212 224 197 191 212 198 197 212 
187 191 197 187 178 190 178 179 190 
251 178 187 156 167 178 156 165 167 
150 147 149 146 147 150 144 146 150 
241 239 242 239 236 242 236 234 214 
177 187 197 198 177 197 177 251 187 
156 178 251 156 150 165 134 137 146 
134 146 144 134 131 137 239 234 236 
234 227 214 216 184 198 156 138 150 
138 144 150 228 227 234 228 208 227 
227 208 214 206 214 208 206 216 214 
206 196 216 138 156 140 122 144 138 
144 122 134 130 131 134 203 205 208 
205 206 208 205 196 206 196 184 216 
185 184 196 170 198 184 170 177 198 
158 177 170 177 157 251 154 157 177 
156 251 157 122 130 134 122 120 130 
120 121 130 158 154 177 151 154 153 
151 157 154 151 156 157 148 140 151 
140 156 151 50 80 70 76 52 70 
70 80 97 226 222 225 
POINT_DATA 252
SCALARS k float
LOOKUP_TABLE default
0.678709 0.80904 0.628156 0.839703 0.237123 0.439469 0.0709711 -0.0538535 1.08178 
-0.263806 1.20437 0.559785 -0.0169044 0.00147927 -0.0307045 -0.000688553 -4.52995e-06 0.0624056 
-0.0707501 -0.0954481 -0.0156167 0.122393 -0.00521803 -0.0343044 -4.28557e-05 -0.000333786 0.0373592 
-0.0655163 0.0900449 -0.163644 -0.2696 0.225719 -0.0527276 0.0499263 -0.414208 2.13866 
1.89061 0.20527 0.326915 0.0628793 0.378976 0.0372096 -0.188992 1.1579 -4.8399e-05 
-0.0114962 0.213245 0.0333533 -0.0530958 -0.000338554 0.00445582 -0.0020628 -0.0085614 -0.0253174 
-0.0184953 0.258879 -0.00910354 -3.49283e-05 0.000315547 -5.19753e-05 0.00274229 0.0253074 -0.0208254 
-0.0696982 -0.00324011 0.119854 0.00663102 -0.0402845 -0.0042336 -0.0162454 -0.0448057 -0.0678649 
-1.54972e-06 0.0285127 -0.0031033 0.00573945 0.0536902 0.0156231 0.0846208 -0.000422597 -0.00726175 
-0.0360979 -0.0612804 -0.0302116 -0.120186 -0.043417 0.235142 -0.0258989 -0.000878163 -0.0482666 
-0.00163406 -0.00678718 -4.07696e-05 9.53674e-07 0.218394 -6.91414e-06 0.0746856 0.0732497 -1.22722 
-0.000323415 -0.0529077 0.00166842 -1.68085e-05 -1.25409 0.150901 -0.0148929 -0.00447989 -0.0381567 
-1.49827 -1.50627 -1.52819 0.0564208 -1.78615 0.228936 -4.49419e-05 0.240346 0.213646 
-2.19941e-05 0.312188 0.213832 0.30549 0.299111 -2.02656e-06 -0.0483197 -6.98566e-05 0.386568 
-2.92063e-06 -9.35793e-06 -1.01328e-06 0.370285 0.248093 0.297366 -1.28448e-05 -0.0820481 0.371176 
-4.76837e-07 0.372956 0.257229 1.78814e-07 -9.53674e-07 -0.00124168 0.179521 0.207465 0.291412 
-3.34978e-05 0.168866 0.329313 0.266111 0.317806 -1.72971 -1.59675 -1.54783 -1.67151 
0.0354097 -0.0134364 -0.0978383 -9.47714e-06 -0.000367165 0.049328 -0.000375628 3.57628e-07 0.0248474 
0.0165228 -1.2557 -3.8147e-06 -0.00177932 -5.59688e-05 -1.16776 -0.0735754 -0.0175996 0.0575121 
-0.000608087 0.0133116 0.20653 0.197209 4.44651e-05 0.0489683 -0.000353694 -0.0764013 -0.0917166 
0.0630722 0.056417 -0.0793567 -0.00255966 0.0280509 -0.0108717 -0.0131338 -0.0555602 -1.16825e-05 
7.41482e-05 -0.0608956 -0.0363185 -0.00696778 0.0461719 0.21115 -5.4121e-05 0.106026 -0.0477313 
-1.33514e-05 0.00356412 0.00469148 -0.0172478 0.000430584 -0.0873907 0.00187433 -0.058179 -0.049361 
-0.0256819 0.0798766 0.00447106 -0.000291467 -0.0130306 -0.0298599 0.0186376 -3.41535e-05 0.00282443 
-9.26256e-05 -0.101148 0.0217979 0.135107 -0.00104666 -3.88622e-05 0.359645 1.49591 -0.0598512 
3.1181 0.832624 0.0564773 0.000918508 -0.08714 0.04471 -0.0203289 -0.000398397 -0.0708761 
0.0250283 0.223969 -0.0111325 -0.00337338 0.8731 0.398007 0.0478518 0.941333 0.849669 
-0.0576849 -0.181616 -3.94583e-05 0.693866 -0.0978611 -0.0814698 0.593175 1.97856 -2.6226e-06 

FIELD FieldData 7
h 1 252 float
44.0911 1.11971 2.69336 1.161 2.67165 2.73897 0.574803 7.2606 18.003 
1.77172 7.07232 1.52546 0.161441 0.469794 9.73622 0.620226 0.372868 3.49241 
2.04248 4.32606 4.59429 7.47687 0.45231 1.0298 0.326717 0.357268 12.2668 
1.44188 0.954836 0.0633616 24.4081 5.87945 0.421204 8.58106 0.165023 9.97279 
18.6804 3.48892 1.14775 14.0777 12.7559 0.103649 7.87532 17.0682 0.0973954 
8.59653 13.9184 3.31256 0.0673362 0.0235871 0.175714 0.0429222 14.5579 0.18907 
16.5557 1.46124 0.719651 0.0490582 4.1383 0.0102318 9.06829 0.682198 0.228194 
1.51803 0.0199278 0.147787 6.47865 1.68256 0.0789627 0.447751 6.43181 0.121416 
0.0221433 0.104478 0.00685344 1.84183 0.617231 0.0372456 0.0712761 0.00731002 0.0268449 
0.11151 0.157531 2.18302 0.0461829 1.57936 0.0634009 0.0438244 0.037364 1.0312 
0.0118724 0.0260561 0.0268891 0.0215838 0.153188 0.0080507 1.16259 2.8649 0.197969 
0.0116708 0.390517 0.0155469 0.0144552 0.0532032 0.066176 0.00924689 0.00787281 0.436659 
0.0383687 0.0359049 0.0516019 0.599145 0.0741366 0.664619 0.020087 0.155506 0.14617 
0.0168908 0.110292 0.197592 0.0484212 0.152411 0.00862403 4.74872 0.0120983 0.10186 
0.0120673 0.0202412 0.0162986 1.57015 0.128326 0.993466 0.0129948 0.00878693 0.0544775 
0.0147802 0.047678 0.773763 0.00922699 0.0200663 0.0129358 0.330197 0.173499 0.0525318 
0.0140284 0.0757554 0.0706171 0.177994 0.289191 0.023337 0.0130202 0.139908 0.0409145 
0.0567701 0.172092 0.403141 0.00633734 0.00302879 0.794559 0.0147042 -33.0503 0.355202 
0.164322 0.246355 0.0133121 0.00662556 0.0208494 0.0148151 1.28463 0.00595825 0.119762 
0.0411636 0.140297 0.0235159 0.101781 0.00511201 0.104619 0.00819282 0.053236 0.039253 
1.27492 0.299858 7.37551 -0.100617 0.332887 1.39501 0.299906 0.0254502 0.0513722 
33.429 0.0419723 0.0279428 0.0546871 17.1048 3.56751 0.0222122 8.28061 0.0631062 
0.0154066 2.41291 0.278753 0.152381 1.5311 2.66199 11.8607 1.87312 0.148946 
1.67441 7.41126 10.125 0.0278235 6.989 5.49129 14.0515 0.0988605 3.62982 
0.0499658 0.0809298 12.1767 4.20354 0.461935 0.375841 9.65844 15.3639 1.3284 
3.50031 17.2264 3.63361 6.9198 6.99121 4.34043 3.18557 0.161251 3.31335 
4.05364 2.23628 0.141372 2.13794 3.1194 5.68265 1.9323 73.1461 1.20741 
1.91408 6.81662 0.546241 12.135 4.92529 0.299157 0.40618 2.91057 0.00398749 

kmin 1 252 float
93.2917 2.28195 5.37293 2.17966 4.87028 4.99324 1.06365 14.0911 51.4122 
3.29059 13.91 3.06263 0.363517 0.886251 19.3836 1.17433 0.760991 6.81953 
4.15028 8.47787 8.90738 14.4612 0.833344 1.97276 0.675115 0.684044 23.9042 
2.82027 1.71449 0.0982019 49.4658 11.5758 0.79318 16.691 0.324525 20.8238 
38.2024 6.75541 2.27989 28.4036 25.4907 0.190294 15.9088 34.0709 0.173619 
17.5358 28.6176 7.21869 0.127597 0.0487885 0.471977 0.0808016 30.888 0.373212 
33.0116 2.85676 1.21763 0.0812103 8.1134 0.0218629 18.2484 2.48805 0.430665 
3.00154 0.0506488 0.281658 13.0229 3.37537 0.151814 0.952333 14.1834 0.219143 
0.0514494 0.294806 0.0342948 3.75616 0.924337 0.0774796 0.122993 0.0726592 0.0497186 
0.226469 0.280315 5.26441 0.0935243 2.84746 0.0842102 0.0804472 0.0649659 2.5426 
0.0395125 0.0509251 0.078087 0.0293324 0.254287 0.0331427 2.18778 6.16139 0.419054 
0.0340229 1.04049 0.0233676 0.0248073 0.125937 0.158118 0.0364346 0.0234646 0.87217 
0.100207 0.0831132 0.131353 1.22831 0.185337 0.998523 0.0446914 0.239215 0.231612 
0.0376841 0.188468 0.253048 0.0847399 0.189452 0.0230233 10.4451 0.0275061 0.152458 
0.0298166 0.0303069 0.0437207 2.7602 0.142934 1.54793 0.0273157 0.0143732 0.0842894 
0.0214257 0.0763551 1.33535 0.0282546 0.0299569 0.0216129 0.508404 0.242777 0.109424 
0.0328733 0.163911 0.142826 0.406057 0.633614 0.0740296 0.0366442 0.373054 0.100257 
0.123935 0.388405 1.41056 0.0227121 0.0130968 1.99033 0.0240731 -3.05479 0.934622 
0.426268 0.462954 0.0260852 0.0272629 0.0405614 0.0417033 3.61958 0.0180527 0.229251 
0.0713951 0.232155 0.0510302 0.164464 0.0273012 0.28324 0.011282 0.119745 0.0692663 
2.38503 1.28163 14.8965 0.0587566 0.606722 2.73884 0.68561 0.0518172 0.0739579 
66.6894 0.0475343 0.0581115 0.0851996 34.1953 7.045 0.0611421 16.2844 0.127272 
0.0236486 5.87366 0.573408 0.259043 3.05687 5.25943 23.8403 3.68994 0.255117 
3.32238 14.3335 20.6673 0.0553835 13.9602 11.3302 28.1495 0.188638 7.8761 
0.0941456 0.122774 24.3328 8.09215 0.832505 0.699772 19.2214 30.9141 2.58739 
5.34937 34.5246 7.00781 13.515 14.036 8.48752 6.36209 0.297235 6.45116 
8.0258 4.50752 0.278058 4.25718 4.62611 11.1641 3.65163 143.569 2.23569 
3.64722 13.4455 1.02386 24.0233 7.9365 0.496547 0.769293 5.86443 0.0159612 

kmax 1 252 float
-5.10957 -0.0425305 0.0137909 0.142351 0.473018 0.4847 0.0859535 0.430076 -15.4061 
0.25285 0.234606 -0.0117154 -0.0406363 0.0533361 0.0888208 0.0661262 -0.0152541 0.165296 
-0.0653188 0.174256 0.281191 0.492544 0.0712766 0.0868354 -0.0216817 0.0304918 0.629475 
0.0634843 0.195186 0.0285214 -0.649618 0.183102 0.0492279 0.471084 0.00552136 -0.878257 
-0.841554 0.222421 0.0156097 -0.248218 0.0211469 0.0170039 -0.158158 0.0654809 0.0211716 
-0.342774 -0.780773 -0.593574 0.00707542 -0.00161429 -0.120549 0.00504281 -1.77211 0.00492736 
0.0997881 0.0657248 0.221668 0.016906 0.163199 -0.00139933 -0.11184 -1.12365 0.0257226 
0.0345209 -0.0107933 0.0139152 -0.0655512 -0.0102571 0.00611132 -0.0568317 -1.31982 0.0236899 
-0.00716271 -0.0858501 -0.020588 -0.0725025 0.310124 -0.0029884 0.0195591 -0.0580392 0.00397123 
-0.0034491 0.0347483 -0.898374 -0.00115853 0.311263 0.0425916 0.00720152 0.00976208 -0.480194 
-0.0157677 0.00118708 -0.0243087 0.0138353 0.0520901 -0.0170413 0.137393 -0.431591 -0.0231168 
-0.0106812 -0.259461 0.00772626 0.00410303 -0.0195308 -0.025766 -0.0179408 -0.00771895 0.00114873 
-0.0234696 -0.0113033 -0.0281489 -0.0300251 -0.037064 0.330715 -0.00451746 0.0717967 0.0607286 
-0.00390247 0.0321164 0.142135 0.0121026 0.11537 -0.00577519 -0.947664 -0.00330957 0.0512624 
-0.0056819 0.0101756 -0.0111236 0.380107 0.113718 0.439003 -0.00132602 0.00320065 0.0246656 
0.00813471 0.0190009 0.212181 -0.00980058 0.0101758 0.00425878 0.15199 0.104221 -0.00436085 
-0.0048166 -0.0123999 -0.00159203 -0.0500682 -0.0552315 -0.0273557 -0.0106039 -0.0932381 -0.018428 
-0.0103945 -0.0442209 -0.604279 -0.0100374 -0.00703919 -0.401212 0.00533525 -63.0457 -0.224218 
-0.0976248 0.029756 0.000539036 -0.0140117 0.00113741 -0.0120731 -1.05031 -0.0061362 0.010273 
0.0109322 0.0484378 -0.00399844 0.0390977 -0.0170771 -0.0740011 0.00510362 -0.0132727 0.00923973 
0.16482 -0.681911 -0.14547 -0.259991 0.0590519 0.0511767 -0.0857993 -0.00091671 0.0287865 
0.16859 0.0364104 -0.00222595 0.0241746 0.0143225 0.0900164 -0.0167178 0.276826 -0.0010598 
0.00716454 -1.04785 -0.0159018 0.0457186 0.00532408 0.0645432 -0.118969 0.0562924 0.0427747 
0.0264376 0.489059 -0.417214 0.000263524 0.0177607 -0.347654 -0.0465478 0.00908332 -0.616457 
0.00578593 0.0390854 0.0206694 0.314936 0.0913651 0.051911 0.095464 -0.186362 0.0694071 
1.65126 -0.0717828 0.259403 0.324588 -0.0535554 0.193343 0.0090551 0.0252682 0.175545 
0.081482 -0.0349573 0.00468615 0.0187123 1.61269 0.201226 0.212962 2.72307 0.179136 
0.180938 0.187728 0.0686272 0.246738 1.91409 0.101767 0.0430674 -0.043287 -0.00798625 

hks 16 252 double
1.050884106 1.0631669141 1.075422544 1.0876273276 1.0997600489 1.1118022666 1.1237385627 1.1355567107 1.1472477561 
1.1588060103 1.1702289576 1.1815170818 1.1926736202 1.2037042561 1.2146167623 1.2254206122 0.99552494979 1.0067913831 
1.0182049303 1.0297482597 1.0414038979 1.0531545046 1.0649831421 1.0768735281 1.0888102638 1.1007790304 1.1127667471 
1.1247616867 1.1367535473 1.1487334792 1.16069407 1.1726292914 1.0409637183 1.051154251 1.0613314688 1.0714880668 
1.0816190631 1.0917218072 1.1017959229 1.1118431864 1.1218673432 1.131873871 1.141869696 1.1518628739 1.1618622464 
1.1718770869 1.1819167483 1.1919903252 1.0701976029 1.0822765777 1.0942212426 1.1060166628 1.117651081 1.1291160656 
1.1404065843 1.1515210004 1.1624609884 1.1732313716 1.1838398858 1.1942968741 1.2046149249 1.2148084624 1.2248933052 
1.2348862063 0.98163799909 0.99716529957 1.0126791723 1.0281479459 1.0435412872 1.0588305828 1.073989301 1.088993325 
1.1038212456 1.1184546053 1.1328780849 1.1470796249 1.1610504782 1.1747851902 1.1882815095 1.2015402306 0.96544298924 
0.97859044748 0.99192664 1.0054313675 1.0190830119 1.032858748 1.0467348021 1.060686753 1.0746898667 1.088719456 
1.102751253 1.1167617821 1.1307287215 1.1446312384 1.1584502891 1.172168872 0.95012102169 0.96296293764 0.97599966481 
0.98921628552 1.0025963873 1.016122134 1.0297743946 1.0435329288 1.0573766248 1.0712837817 1.085232426 1.0992006513 
1.1131669658 1.1271106371 1.1410120177 1.1548528422 1.0131701911 1.0216009324 1.030016035 1.0384255645 1.0468418518 
1.0552791675 1.0637533381 1.072281315 1.0808807088 1.0895693045 1.0983645721 1.1072831881 1.1163405851 1.125550541 
1.1349248242 1.1444729025 0.97040465725 0.98102076651 0.99189572035 1.0030264678 1.0144075541 1.0260310243 1.0378863997 
1.0499607325 1.0622387366 1.0747029931 1.0873342223 1.1001116139 1.113013201 1.1260162674 1.1390977699 1.1522347632 
1.0280669271 1.040318647 1.0527193711 1.0652393507 1.0778488974 1.0905188062 1.1032207777 1.1159278308 1.1286146913 
1.1412581468 1.1538373564 1.1663341034 1.178732984 1.1910215253 1.203190229 1.2152325394 0.93367947887 0.94415799716 
0.95491345351 0.96594681513 0.97725653982 0.98883840908 1.0006854297 1.0127878097 1.0251330129 1.037705891 1.0504888917 
1.0634623358 1.0766047541 1.089893274 1.1033040403 1.116812658 0.90966653293 0.9198165691 0.93019368385 0.94080722592 
0.95166481938 0.96277200093 0.97413190756 0.9857450274 0.99760902407 1.0097186421 1.0220656974 1.0346391542 1.0474252841 
1.0604079034 1.0735686776 1.0868874825 0.83864588012 0.85036682229 0.86246038786 0.87491211415 0.8877057408 0.90082312658 
0.91424421719 0.92794707373 0.94190796832 0.95610154907 0.97050107268 0.98507869839 0.99980583364 1.0146535186 1.0295928349 
1.0445953219 0.83366936144 0.83981779588 0.8462697252 0.85304195115 0.86015198708 0.86761753728 0.87545591454 0.8836834187 
0.89231470201 0.90136214871 0.91083529617 0.92074032339 0.93107962983 0.94185152324 0.95305002991 0.96466483512 0.85516574062 
0.86390116745 0.87294061962 0.88229142143 0.89195921737 0.9019476791 0.91225825849 0.92288999602 0.93383939204 0.94510034493 
0.95666415806 0.96851961405 0.98065311279 0.99304886705 1.005689148 1.0185545714 0.82016344214 0.83181261567 0.84386963143 
0.85631618024 0.86913213933 0.88229562726 0.89578308752 0.90956940741 0.92362807711 0.93793139139 0.95245069364 0.96715665903 
0.98201961042 0.99700985844 1.0120980549 1.0272555479 0.97227315511 0.97862198863 0.98538833782 0.99256401598 1.000139116 
1.0081021724 1.0164403305 1.0251395179 1.0341846165 1.0435596303 1.053247848 1.0632319975 1.0734943907 1.0840170591 
1.0947818776 1.1057706781 0.87498388093 0.88250188985 0.89026756562 0.89830300304 0.90662962585 0.91526760795 0.92423529279 
0.93354863153 0.94322066091 0.95326104143 0.96367567467 0.97446641581 0.98563089409 0.99716244948 1.0090501888 1.0212791602 
0.61641922061 0.62249687258 0.62911070142 0.63627523881 0.64400169093 0.65229761052 0.66116662308 0.67060821975 0.68061762739 
0.69118576407 0.70229928541 0.71394072335 0.72608871545 0.73871831887 0.75180139973 0.76530708543 0.86177299803 0.87105607011 
0.88058859828 0.89038705638 0.90046640012 0.91083956402 0.9215169963 0.93250624903 0.94381163907 0.95543399326 0.96737048783 
0.97961458882 0.99215609607 1.0049812896 1.0180731728 1.0314118036 0.7488016824 0.75535772936 0.76238020807 0.76987376392 
0.77784196172 0.78628696906 0.79520924059 0.80460721854 0.81447706477 0.82481243771 0.83560432588 0.84684094675 0.85850771674 
0.8705872948 0.88305969887 0.89590249147 0.73985620709 0.74735869308 0.75518555196 0.76335767008 0.77189486021 0.78081530427 
0.79013500842 0.79986728993 0.81002231436 0.82060670038 0.83162320707 0.84307051594 0.85494311611 0.86723129706 0.87992124956 
0.89299527073 0.64062751736 0.64733876446 0.6546188326 0.66247630481 0.6709171369 0.67994418081 0.68955675639 0.69975029598 
0.71051608306 0.72184110201 0.73370801012 0.7460952374 0.7589772122 0.77232470521 0.78610527769 0.80028381557 0.82499669769 