# vtk DataFile Version 5.1
vtk output
ASCII
DATASET POLYDATA
POINTS 252 float
0.7239 -0.30071 0.029353 0.75925 -0.321153 -0.026586 0.769339 -0.362964 -0.029601 
0.778999 -0.35253 0.023204 0.745662 -0.347326 0.029002 0.697388 -0.28534 -0.025069 
0.708172 -0.483363 0.016899 0.736999 -0.428164 0.029605 0.706574 -0.486103 -0.028811 
0.735891 -0.433313 -0.029653 0.621341 -0.31545 0.029396 0.638402 -0.245616 -0.024836 
0.711742 -0.308841 -0.029705 0.654366 -0.460646 -0.027861 0.581434 -0.416193 0.029781 
0.663123 -0.466733 0.02917 0.638753 -0.423401 -0.029661 0.554595 -0.186429 0.029486 
0.640309 -0.247164 0.029346 0.633105 -0.257699 -0.029986 0.583043 -0.417043 -0.029549 
0.563866 -0.33619 -0.029678 0.542762 -0.176775 -0.024099 0.504003 -0.364179 -0.022432 
0.551843 -0.194013 -0.029941 0.506321 -0.353603 -0.030236 0.501398 -0.362471 0.029534 
0.472159 -0.117603 0.029357 0.46027 -0.229683 0.029373 0.491076 -0.271231 -0.02952 
0.494779 -0.151891 -0.029806 0.446884 -0.320398 -0.030237 0.371894 -0.095657 -0.029547 
0.475329 -0.120363 -0.024968 0.387148 -0.037908 0.026705 0.420204 -0.070083 -0.028133 
0.431822 -0.085673 0.029995 0.407177 -0.290042 0.029425 0.384158 -0.270667 -0.020556 
0.383045 -0.066999 0.02929 0.365068 -0.014864 -0.026347 0.407532 -0.281464 -0.029675 
0.343615 -0.221319 -0.029879 0.382113 -0.052592 -0.030516 0.319362 0.033666 -0.029772 
0.328615 -0.221405 0.029828 0.326178 0.026866 0.029262 0.300144 -0.119421 0.029603 
0.250547 -0.001759 0.02936 0.285855 0.073643 -0.025621 0.256438 -0.150696 0.02834 
0.284346 0.009743 -0.02961 0.27838 0.822539 0.02815 0.251419 0.116737 0.029562 
0.270978 0.749743 0.02885 0.274 0.772839 -0.025448 0.269758 0.839627 -0.027549 
0.259174 0.641262 0.026825 0.27041 0.845996 0.012003 0.259781 0.647588 -0.024026 
0.259197 -0.153153 -0.029675 0.244791 0.503969 -0.02227 0.253638 0.806036 -0.020414 
0.252234 0.779498 -0.030931 0.250516 0.564067 0.028379 0.240226 0.561948 -0.030166 
0.238575 0.114609 -0.030239 0.248343 0.674752 -0.02992 0.231895 0.46542 -0.030238 
0.24242 0.484231 0.029223 0.241179 0.767901 0.029149 0.23213 0.647985 0.02967 
0.233905 0.395291 -0.02251 0.221488 0.156517 0.023601 0.233674 0.397751 0.028882 
0.223088 0.299772 -0.024265 0.188194 0.538836 0.02964 0.234206 -0.037076 -0.029579 
0.214524 0.686791 -0.019731 0.222833 0.299287 0.02789 0.216024 0.16406 -0.02375 
0.196382 0.217457 0.029347 0.209192 0.653564 -0.029679 0.222949 0.40447 -0.030144 
0.194571 0.628022 0.028396 0.196684 0.220392 -0.026964 0.207722 0.150606 0.029564 
0.180608 0.124728 -0.029814 0.19185 -0.081567 -0.029463 0.200243 0.262191 -0.030077 
0.189345 0.61286 -0.0228 0.186588 -0.075066 0.029841 0.155086 -0.037001 -0.030104 
0.170364 0.553135 -0.015687 0.203337 0.26306 0.029563 0.155333 0.508698 0.02938 
0.128319 -0.07128 -0.023266 0.145431 0.372803 -0.029457 0.158426 0.398853 0.029587 
0.164388 0.522007 -0.02962 0.185494 0.464275 -0.029486 0.142415 0.471987 -0.013095 
0.152267 0.242445 -0.029575 0.137626 0.459544 0.02771 0.155173 -0.046417 0.02927 
0.119883 0.385978 -0.030022 0.125759 0.396041 0.028877 0.094308 0.327229 -0.029531 
0.112964 0.386127 -0.021307 0.116246 0.393995 0.013102 0.088568 -0.097915 0.028784 
0.067894 0.172807 -0.029488 0.094067 0.325918 0.029423 0.055809 0.340651 -0.029633 
0.064799 -0.106168 -0.030133 0.038682 -0.025152 0.029487 0.045144 -0.112614 -0.01285 
-0.067312 -0.053961 0.029474 -0.028166 -0.122713 -0.015079 -0.027674 0.167993 0.029332 
0.004712 0.341096 -0.029889 0.048318 0.251528 0.029439 0.082739 0.03354 -0.029596 
0.016179 0.352348 -0.023494 0.025705 0.350485 0.029003 -0.003394 0.170017 -0.029524 
-0.030944 0.353317 0.029213 -0.031687 0.353594 -0.029217 -0.084281 0.056199 0.029334 
-0.006389 -0.12081 0.029238 -0.061651 0.350399 -0.012995 -0.056747 0.292357 0.029493 
-0.134604 -0.093839 0.029503 -0.090668 -0.109361 -0.028807 -0.112854 0.257212 -0.029535 
-0.088247 0.058032 -0.029538 -0.019319 -0.076918 -0.029685 -0.108193 0.33601 -0.029389 
-0.15889 -0.153806 0.029149 -0.138134 -0.097209 -0.021792 -0.187097 0.114802 0.029422 
-0.126984 0.32882 0.029168 -0.140504 -0.085744 -0.030236 -0.149516 -0.133405 -0.025507 
-0.155571 0.312238 -0.02809 -0.163549 -0.164698 -0.025819 -0.18911 0.107388 -0.029524 
-0.190411 -0.229719 -0.024491 -0.190064 0.264672 -0.02959 -0.174994 0.295641 0.029539 
-0.234141 -0.04832 0.029388 -0.183127 -0.212446 0.027135 -0.205094 -0.202001 0.029391 
-0.190493 -0.200935 -0.03043 -0.208637 -0.269849 -0.019854 -0.211259 -0.171256 -0.02962 
-0.227529 -0.306851 0.028815 -0.216804 0.250777 -0.030018 -0.194644 0.002909 -0.029524 
-0.239148 -0.330714 -0.024078 -0.28281 -0.244616 0.029473 -0.216234 0.250955 0.029099 
-0.213663 -0.257259 -0.030136 -0.258042 0.096119 0.028676 -0.240626 0.282079 -0.015097 
-0.292177 -0.015199 -0.029215 -0.255555 -0.36045 0.027184 -0.266252 0.297519 -0.030255 
-0.295461 -0.045207 0.029393 -0.256917 0.097143 -0.029594 -0.274848 0.041557 0.025505 
-0.296768 0.143801 0.027513 -0.312578 -0.37649 0.029569 -0.276749 -0.399236 -0.023978 
-0.296565 0.350546 -0.023776 -0.202933 0.21285 0.029474 -0.316259 -0.464322 0.029754 
-0.298754 -0.031324 0.026065 -0.309529 -0.085177 -0.029698 -0.277787 0.328008 0.029141 
-0.321785 -0.095876 -0.022284 -0.321226 -0.472855 -0.023183 -0.317476 0.272746 0.029696 
-0.328896 0.236502 -0.029455 -0.259074 -0.340776 -0.029981 -0.311412 0.194789 0.029361 
-0.332454 0.394103 0.028111 -0.344482 -0.181805 -0.029537 -0.32329 -0.095052 0.024323 
-0.321547 0.345266 -0.029589 -0.346862 -0.153023 0.025609 -0.342487 -0.169912 0.029314 
-0.32303 -0.288542 -0.029566 -0.324095 0.180179 -0.029102 -0.334241 0.200181 0.01479 
-0.406775 -0.276856 0.029288 -0.372326 0.27652 0.029223 -0.361933 0.256297 -0.029419 
-0.364354 -0.193318 -0.026881 -0.391645 -0.574202 -0.021556 -0.376589 -0.216704 0.028956 
-0.389621 -0.262937 -0.029766 -0.348543 0.415717 -0.02203 -0.404491 -0.576519 -0.029875 
-0.379595 0.349294 -0.0295 -0.369986 0.440658 0.029455 -0.370311 -0.544067 0.029045 
-0.315186 -0.441993 -0.029795 -0.393048 -0.248745 -0.021798 -0.370217 0.426687 -0.030341 
-0.384805 0.300376 -0.016875 -0.366292 0.377689 0.029996 -0.438408 -0.331335 -0.028134 
-0.409443 0.490046 -0.022924 -0.419615 -0.436553 -0.029584 -0.425554 0.484245 -0.029973 
-0.427359 0.485759 0.029808 -0.430366 0.396957 -0.029558 -0.400253 -0.497506 0.029658 
-0.449339 -0.348883 0.027268 -0.420427 0.502882 0.027396 -0.455612 -0.375825 0.029498 
-0.439425 0.407898 0.028333 -0.446404 -0.64502 0.029875 -0.456543 0.548497 -0.025585 
-0.453679 0.544593 0.029026 -0.450396 -0.650519 -0.027266 -0.472156 -0.394618 -0.029373 
-0.487432 -0.693612 0.003904 -0.491282 -0.415498 0.029426 -0.512838 -0.445693 -0.020623 
-0.49103 -0.562995 0.029585 -0.520043 -0.664576 -0.029369 -0.515115 -0.466669 -0.02988 
-0.477739 0.486768 0.029407 -0.508983 -0.54604 -0.029499 -0.446002 -0.625532 -0.029788 
-0.484615 0.5005 -0.029087 -0.54282 -0.48708 0.029679 -0.521226 -0.663734 0.029308 
-0.507024 0.610593 -0.029225 -0.500569 0.602998 0.028907 -0.522892 0.577633 0.029433 
-0.542643 0.623361 -0.029972 -0.600307 -0.594524 0.029547 -0.554927 0.639466 -0.010617 
-0.550022 0.658356 0.023263 -0.57945 -0.533589 0.028065 -0.564947 -0.517286 -0.029374 
-0.589773 -0.603604 -0.029337 -0.617902 -0.579253 -0.000914 0.110365 0.104024 0.029351 

POLYGONS 501 1500
OFFSETS vtktypeint64
0 3 6 9 12 15 18 21 24 
27 30 33 36 39 42 45 48 51 
54 57 60 63 66 69 72 75 78 
81 84 87 90 93 96 99 102 105 
108 111 114 117 120 123 126 129 132 
135 138 141 144 147 150 153 156 159 
162 165 168 171 174 177 180 183 186 
189 192 195 198 201 204 207 210 213 
216 219 222 225 228 231 234 237 240 
243 246 249 252 255 258 261 264 267 
270 273 276 279 282 285 288 291 294 
297 300 303 306 309 312 315 318 321 
324 327 330 333 336 339 342 345 348 
351 354 357 360 363 366 369 372 375 
378 381 384 387 390 393 396 399 402 
405 408 411 414 417 420 423 426 429 
432 435 438 441 444 447 450 453 456 
459 462 465 468 471 474 477 480 483 
486 489 492 495 498 501 504 507 510 
513 516 519 522 525 528 531 534 537 
540 543 546 549 552 555 558 561 564 
567 570 573 576 579 582 585 588 591 
594 597 600 603 606 609 612 615 618 
621 624 627 630 633 636 639 642 645 
648 651 654 657 660 663 666 669 672 
675 678 681 684 687 690 693 696 699 
702 705 708 711 714 717 720 723 726 
729 732 735 738 741 744 747 750 753 
756 759 762 765 768 771 774 777 780 
783 786 789 792 795 798 801 804 807 
810 813 816 819 822 825 828 831 834 
837 840 843 846 849 852 855 858 861 
864 867 870 873 876 879 882 885 888 
891 894 897 900 903 906 909 912 915 
918 921 924 927 930 933 936 939 942 
945 948 951 954 957 960 963 966 969 
972 975 978 981 984 987 990 993 996 
999 1002 1005 1008 1011 1014 1017 1020 1023 
1026 1029 1032 1035 1038 1041 1044 1047 1050 
1053 1056 1059 1062 1065 1068 1071 1074 1077 
1080 1083 1086 1089 1092 1095 1098 1101 1104 
1107 1110 1113 1116 1119 1122 1125 1128 1131 
1134 1137 1140 1143 1146 1149 1152 1155 1158 
1161 1164 1167 1170 1173 1176 1179 1182 1185 
1188 1191 1194 1197 1200 1203 1206 1209 1212 
1215 1218 1221 1224 1227 1230 1233 1236 1239 
1242 1245 1248 1251 1254 1257 1260 1263 1266 
1269 1272 1275 1278 1281 1284 1287 1290 1293 
1296 1299 1302 1305 1308 1311 1314 1317 1320 
1323 1326 1329 1332 1335 1338 1341 1344 1347 
1350 1353 1356 1359 1362 1365 1368 1371 1374 
1377 1380 1383 1386 1389 1392 1395 1398 1401 
1404 1407 1410 1413 1416 1419 1422 1425 1428 
1431 1434 1437 1440 1443 1446 1449 1452 1455 
1458 1461 1464 1467 1470 1473 1476 1479 1482 
1485 1488 1491 1494 1497 1500 
CONNECTIVITY vtktypeint64
112 107 113 61 64 69 72 69 74 
81 80 85 73 49 80 44 49 46 
34 40 46 31 37 38 0 1 5 
9 7 6 126 127 130 128 119 140 
124 127 126 131 124 126 143 138 145 
143 139 138 132 138 139 119 121 131 
121 124 131 118 132 133 115 119 128 
121 112 124 112 113 124 118 129 132 
129 117 132 117 115 128 251 119 115 
204 197 210 121 94 112 109 107 112 
106 109 112 108 107 109 109 101 108 
103 101 109 103 109 106 98 103 106 
103 95 101 95 103 98 95 93 101 
95 84 93 76 84 95 71 84 76 
84 70 78 71 70 84 54 70 71 
54 52 70 58 62 70 58 70 52 
48 251 104 251 121 119 112 98 106 
69 95 98 64 57 71 57 54 71 
59 54 57 52 54 55 115 117 129 
110 115 129 116 110 129 86 121 251 
86 81 121 94 98 112 74 69 98 
69 76 95 69 64 76 76 64 71 
57 64 61 79 98 94 79 74 98 
72 74 79 110 104 115 96 104 110 
115 104 251 53 86 251 79 94 81 
85 79 81 75 79 85 91 48 104 
48 53 251 73 80 81 86 73 81 
53 73 86 53 49 73 48 46 53 
46 49 53 60 50 91 47 91 50 
47 48 91 47 46 48 39 46 47 
50 45 47 60 45 50 39 34 46 
28 39 47 34 35 40 45 28 47 
36 39 28 36 34 39 37 45 38 
37 28 45 28 27 36 36 35 34 
36 27 35 17 27 28 26 37 31 
26 28 37 26 10 28 14 26 23 
14 10 26 10 17 28 10 18 17 
18 11 17 0 18 10 0 5 18 
20 15 14 7 10 14 15 7 14 
7 4 10 4 0 10 6 7 15 
3 4 7 9 3 7 4 3 0 
0 3 1 142 155 158 142 143 153 
155 142 153 155 153 162 147 154 162 
147 151 154 153 147 162 154 159 162 
159 154 156 162 159 184 159 173 184 
127 137 130 127 120 137 146 135 158 
162 184 192 184 207 192 184 173 207 
173 181 207 207 181 203 181 176 206 
181 199 203 120 134 137 134 146 148 
158 155 178 155 162 187 187 162 192 
181 206 199 199 226 203 144 137 134 
134 148 144 146 158 169 178 155 187 
201 192 207 207 203 235 235 203 236 
203 226 236 232 226 228 149 141 144 
144 148 157 149 144 161 161 144 157 
148 146 157 157 146 183 146 169 183 
163 169 170 169 158 165 170 169 165 
170 165 177 165 158 178 165 178 180 
178 187 180 198 180 187 187 192 201 
198 187 201 201 207 212 207 214 227 
214 207 235 236 226 232 232 228 239 
161 157 164 164 157 167 198 201 208 
200 198 208 208 201 212 207 227 212 
227 214 233 214 235 233 235 236 232 
164 167 174 167 157 183 183 169 193 
169 171 193 219 212 229 212 227 229 
229 227 230 230 227 233 233 235 248 
249 232 244 235 232 249 174 167 189 
167 183 189 230 233 248 230 248 247 
235 249 248 244 250 249 183 197 189 
189 197 204 183 193 194 183 194 197 
250 247 248 250 248 249 186 174 202 
202 174 189 202 189 209 209 189 204 
204 210 217 213 202 209 205 202 213 
186 202 205 210 196 222 217 210 222 
213 209 215 209 204 217 209 217 215 
205 213 220 224 213 215 213 224 225 
217 222 237 215 217 237 225 224 240 
224 237 240 224 215 237 243 240 237 
237 245 243 241 240 246 240 243 245 
81 94 121 24 19 21 20 14 23 
21 20 23 25 21 23 29 21 25 
22 24 30 24 21 29 24 29 30 
29 25 31 25 23 31 31 23 26 
17 22 33 22 30 33 17 33 27 
29 41 30 29 31 41 33 30 32 
31 38 41 27 33 35 33 32 35 
30 41 42 35 32 43 41 38 42 
40 35 43 32 30 60 30 42 60 
42 45 60 42 38 45 40 43 51 
51 43 32 46 40 44 44 40 51 
51 32 77 32 60 77 49 44 51 
88 77 60 49 51 66 60 91 88 
80 49 66 66 51 87 87 51 77 
77 88 92 92 88 91 80 66 87 
87 77 122 77 92 122 91 104 92 
92 104 96 75 72 79 75 85 89 
80 87 85 92 96 114 114 96 110 
122 92 114 61 69 72 72 83 68 
61 72 68 68 83 100 72 75 83 
83 75 89 89 85 102 85 87 102 
102 87 111 136 122 114 110 116 114 
59 57 61 59 61 65 61 68 65 
65 68 100 100 83 97 97 83 89 
89 102 97 111 87 122 114 116 118 
118 116 129 55 54 59 55 67 63 
59 65 67 67 65 82 82 65 99 
65 100 99 100 97 105 97 102 107 
107 102 111 111 122 125 122 136 135 
114 118 133 136 114 133 56 52 55 
52 56 58 58 56 62 56 55 63 
56 63 62 62 63 78 70 62 78 
63 67 82 78 82 90 90 84 78 
78 63 82 90 82 99 90 93 84 
90 99 93 101 93 99 101 99 108 
99 105 108 108 105 107 105 97 107 
113 107 111 113 111 120 111 125 120 
122 135 125 136 133 142 240 245 246 
113 120 123 124 113 123 135 136 158 
133 132 139 142 133 139 136 142 158 
127 124 123 123 120 127 125 134 120 
125 135 146 139 143 142 145 138 151 
143 145 153 145 147 153 145 151 147 
125 146 134 132 117 150 138 132 150 
138 150 152 152 151 138 151 152 156 
154 151 156 156 152 160 159 156 166 
237 242 245 194 196 197 179 174 186 
238 230 247 164 174 179 190 198 200 
177 165 180 226 223 228 141 137 144 
199 223 226 199 206 223 141 130 137 
181 173 176 159 166 173 11 19 24 
22 11 24 11 22 17 21 16 20 
5 19 11 5 11 18 16 13 20 
13 15 20 21 12 16 19 12 21 
5 12 19 16 9 13 8 6 15 
9 8 13 8 15 13 16 2 9 
12 2 16 5 1 12 1 2 12 
9 6 8 2 3 9 3 2 1 
245 242 246 241 246 242 237 234 242 
234 225 242 242 225 241 241 225 240 
222 234 237 216 225 234 220 225 216 
211 216 222 222 216 234 220 213 225 
222 196 211 205 216 211 205 220 216 
211 186 205 211 196 182 197 196 210 
182 186 211 179 186 182 244 247 250 
231 247 244 229 230 238 194 185 196 
185 182 196 161 179 182 232 239 244 
231 238 247 231 229 238 221 219 229 
171 194 193 171 185 194 175 182 185 
161 164 179 239 231 244 231 221 229 
219 195 212 221 195 219 195 208 212 
200 208 195 191 190 200 171 140 185 
169 163 171 163 140 171 140 175 185 
175 161 182 223 231 239 218 221 231 
195 160 200 160 191 200 190 180 198 
188 180 190 191 188 190 191 168 188 
188 177 180 168 177 188 168 170 177 
150 170 168 150 163 170 175 149 161 
228 223 239 223 218 231 218 172 221 
172 195 221 172 160 195 160 150 191 
150 168 191 140 163 150 175 141 149 
223 206 218 206 176 218 176 172 218 
150 128 140 131 141 175 166 172 176 
156 160 172 152 150 160 117 128 150 
140 119 175 119 131 175 131 126 141 
130 141 126 173 166 176 166 156 172 
55 59 67 99 100 105 
POINT_DATA 252
SCALARS k float
LOOKUP_TABLE default
0.238568 0.761232 0.638063 1.29727 0.0063839 -0.0752022 0.990972 0.218258 1.57815 
0.0754305 -2.73287e-05 -0.0294024 -0.00175905 0.057645 0.0461074 0.414893 0.000119448 -0.0760932 
-0.0483 -0.00499803 0.131841 -0.0435128 -0.0716847 -0.20139 0.00274587 0.165316 0.0627338 
0.00947446 -8.32081e-05 -7.86781e-06 0.00298566 0.16344 -0.00623113 -0.0860417 -0.0683526 0.00428435 
-0.0785633 0.058202 0.0583304 -0.00506055 -0.100437 -0.0170922 -0.0872822 0.0110309 0.0738392 
0.0651281 -0.0377125 -0.000400662 -4.19617e-05 -0.110729 0.0215869 -0.0115002 1.1384 0.048232 
0.0337064 0.144658 2.39035 -0.0313927 1.92994 -0.01081 0.128918 -0.00956988 0.0414024 
0.0399526 -0.00241685 -0.000416577 0.032024 -0.0045054 0.0135587 0.0139968 0.180071 -0.00102168 
0.001647 -0.368907 0.014814 0.182863 -0.000186741 -8.96454e-05 -0.0122225 0.175139 -0.392287 
-0.615189 -0.00913984 -0.00315797 -0.00860578 -0.594033 -0.054764 -0.0106126 0.0522864 0.0214324 
0.0252478 -0.0663077 -1.42805 -0.00849712 0.00211251 0.0100191 0.218643 -6.98566e-05 -0.0012235 
-0.00885838 3.40939e-05 -0.0036869 -0.00325084 0.0795887 -1.62874 -0.0292604 -0.117516 -1.56603 
-0.00780451 -0.0517209 0.414237 -2.02656e-06 -1.47817 0.160067 0.471578 -1.21593e-05 0.0264608 
-2.5034e-06 0.181693 3.57628e-07 -0.0240932 -2.37823e-05 -3.92795e-05 0.0870195 0.284197 -2.86102e-06 
0.294345 0.32774 1.07288e-06 0.422438 0.0335559 1.14441e-05 -1.35384 0.247126 -0.000423431 
-1.19209e-07 -0.000381291 0.256362 0.0291984 -1.25408 -0.000436544 0.344742 -0.387218 0.121374 
0.277203 -0.0108135 -3.45111e-05 0.0619183 -0.000185609 0.23511 -0.00263011 0.00367761 -0.00159931 
0.000616789 -0.0206574 3.0458e-05 0.0823008 -1.5535 -7.34925e-05 0.0566704 -4.81009e-05 -1.73606 
0.00191182 -0.931263 -0.0466537 -9.62019e-05 0.001019 -0.0591592 0.00551152 -0.955544 -0.0822277 
0.192771 -0.00106412 0.0418518 0.0267242 -0.000165343 0.0945417 -0.0276814 -0.0200162 0.0293724 
-0.103434 0.05555 -0.000350952 -0.515898 0.000753313 -0.0607738 -0.0459046 -0.0214198 -0.0436576 
-0.0249944 -0.0684144 -0.0136674 1.20401e-05 0.551842 -0.223209 -0.0429946 0.0971311 0.510707 
0.00953561 0.0127215 0.00654185 -0.0289185 -0.0223782 0.00702073 -0.0665456 0.0480823 0.0361179 
0.0082916 -0.0733223 0.0457857 -0.155797 3.83854e-05 0.0297072 -0.029855 -2.83122e-05 -0.00432587 
-0.00301456 0.0654143 -0.000100613 -0.0663178 -0.0558356 -0.0067606 0.00162941 0.356671 -0.0190053 
0.0319563 0.416123 -0.0771889 1.60198 -0.0485704 -0.0489388 -0.000409961 0.514587 -0.0487399 
0.00278497 -3.19481e-05 0.00490236 0.0232042 -0.0122796 0.415494 0.435177 0.126138 0.186469 
0.942502 0.779735 0.98372 3.2044 0.166536 0.215025 0.553637 1.3256 -1.13249e-06 

FIELD FieldData 7
h 1 252 float
7.76703 5.7059 0.493867 21.2812 0.0129616 3.57067 4.61094 0.246753 12.7872 
3.56391 0.162565 2.10257 0.382182 7.05803 2.31709 11.5719 0.425521 4.3645 
9.71317 0.386414 12.5625 0.333133 2.56281 17.8894 0.0853986 0.202937 0.270887 
5.25956 0.167249 0.112795 0.0500866 13.753 0.0234733 1.95729 2.71551 2.25426 
2.6354 5.46633 2.21374 0.0192481 0.992889 0.0591868 0.0670213 0.043991 0.464228 
0.963474 0.306412 0.0721084 0.00799572 0.723665 0.608664 0.0204073 10.4138 0.102094 
16.0355 7.99685 12.8521 7.43805 24.9101 3.51751 0.03693 1.60444 5.31588 
0.537868 2.56546 -0.0682295 0.0213126 0.509561 0.0898177 0.607513 12.7175 -0.0332109 
0.986154 0.739723 0.577568 0.752129 0.0761312 0.0214751 3.80164 0.568626 0.382969 
0.153724 -0.103813 0.00852989 4.86181 0.125315 -0.000150327 0.0203878 0.0453925 0.00608008 
2.09673 0.137283 0.0337055 7.53853 -0.0201508 0.291605 0.510553 0.0182087 0.00998054 
0.0633937 0.0231963 2.04144 0.0154642 0.830715 0.0163809 0.0256669 0.072041 0.042782 
0.421391 1.03878 0.119187 0.0234456 0.0492283 0.0350373 0.0227092 0.0101622 1.40979 
0.0141155 0.642853 0.0072598 0.0363281 0.0055985 0.0221449 0.67378 0.0769528 0.0246768 
0.177114 0.882149 0.00966668 0.0384222 0.921061 0.00956072 0.113851 0.0140913 0.029301 
0.0248963 0.0265362 0.0464383 0.167288 0.16156 0.00178021 0.104278 0.0269006 0.190642 
0.154449 0.408456 0.020509 1.28413 0.0269969 0.0919651 0.0017961 1.6305 0.0189889 
0.0261162 0.716501 0.0210118 0.290811 0.0803046 0.0147734 3.4519 0.0161913 0.111209 
0.0446257 0.0526971 0.641224 0.154327 4.79979 0.0381172 -0.00959421 0.126336 0.20472 
0.194539 0.102117 3.78941 1.10161 0.00263096 1.3854 0.250649 0.0100314 0.214816 
1.31384 5.07663 -0.0104729 0.0109999 0.066347 -0.00343596 0.149889 0.0327901 1.96683 
0.0375067 0.42208 -0.00921972 0.102577 1.29557 1.81259 0.0985819 0.0975289 0.389371 
1.81411 1.29835 0.313746 0.0761448 2.46717 1.03202 0.177575 -1.3798 12.0342 
0.22911 0.795849 0.0305095 7.79054 0.00292708 3.36026 4.93478 0.681102 0.0173525 
0.0986039 1.82446 0.0413986 0.9772 7.01247 0.00194277 2.04213 4.75714 16.6296 
0.120758 9.28991 3.71039 68.9964 9.39996 1.40223 0.321607 1.86809 1.32746 
2.83159 1.01268 1.20842 12.2087 4.87394 0.767622 16.4591 14.7914 15.3819 
10.3881 2.39629 11.8051 17.1818 11.5082 8.11133 2.20298 42.9317 0.00699852 

kmin 1 252 float
15.6483 10.4984 0.99498 42.3793 0.0542692 6.76716 8.65279 0.478695 27.1425 
6.32268 0.305072 4.26206 0.785884 13.9344 4.60512 22.9824 0.866386 8.657 
19.318 0.777993 24.7518 0.682633 5.18383 35.5484 0.170709 0.411344 0.531537 
10.4337 0.33094 0.22971 0.102925 27.1998 0.044691 3.79832 5.36579 4.39997 
5.19853 10.6864 4.69919 0.0294667 1.90439 0.119169 0.136643 0.0787712 0.875389 
1.8611 0.533133 0.138549 0.047579 1.45583 1.18752 0.0402748 20.9292 0.140017 
32.0052 16.2484 26.2033 14.904 51.0084 7.05153 0.076137 3.28147 10.5501 
1.34597 4.90429 0.0822083 0.0535446 1.05102 0.144381 1.06657 26.21 0.139199 
2.11556 1.29394 0.993043 1.51998 0.148089 0.0329926 7.63377 0.992351 0.910312 
0.239923 -0.0400543 0.0564214 11.7366 0.26849 0.0288149 0.0361315 0.110935 0.0555611 
4.20017 0.357589 0.0436193 14.6349 0.061772 0.943989 0.735789 0.033263 0.104075 
0.117647 0.0483256 4.45706 0.0425021 2.0756 0.050117 0.0682654 0.376552 0.0690923 
1.14997 1.5695 0.251085 0.0292291 0.170688 0.133474 0.0375261 0.0163374 3.54857 
0.0258554 1.45837 0.018574 0.0574014 0.0247999 0.02971 0.802018 0.154119 0.0405973 
0.223299 1.13689 0.0230822 0.0583176 1.85382 0.0113506 0.313196 0.0238459 0.0416207 
0.0390659 0.0315189 0.135844 0.390242 1.01512 0.0320262 0.149513 0.0418302 1.47678 
0.320707 2.48719 0.0426881 2.45173 0.0450892 0.163549 0.0524735 3.08218 0.0525897 
0.0422471 1.27289 0.0352874 0.480312 0.182609 0.0374328 6.96153 0.0599716 0.232632 
0.0880934 0.119249 1.00259 0.369834 9.39233 0.0657655 0.0252037 0.284736 0.456291 
0.353881 0.185935 7.52245 2.84043 0.0347059 2.66696 0.706433 0.0458623 0.7333 
2.67272 10.0111 0.0630454 0.0541492 0.108516 0.0248133 0.795997 0.0460152 3.87979 
0.0719669 1.19084 0.0367332 0.194579 2.51787 3.52456 0.182452 0.171173 0.671318 
3.76967 2.50777 0.61481 0.127867 6.02135 1.959 0.321616 2.72092 23.8823 
0.459267 1.60402 0.0892321 15.9202 0.0719811 6.69326 10.314 1.36324 0.0846246 
0.243823 3.4523 0.0576057 1.98722 14.4101 0.0533713 4.71994 9.62738 33.1762 
3.15195 18.1328 7.33665 143.461 18.976 2.74712 0.626624 3.72319 2.53509 
5.86989 1.99658 2.37869 24.4575 9.64805 1.49669 32.918 29.6263 31.0505 
20.9029 4.67706 23.9657 32.8233 23.0771 16.4537 4.50927 84.2456 0.030434 

kmax 1 252 float
-0.114234 0.913408 -0.00724558 0.183132 -0.0283461 0.374187 0.569083 0.0148113 -1.56814 
0.805142 0.0200586 -0.0569193 -0.0215206 0.18168 0.0290653 0.161308 -0.0153435 0.0720055 
0.108349 -0.00516407 0.373237 -0.0163669 -0.0582036 0.230331 8.87226e-05 -0.0054704 0.0102378 
0.0853877 0.00355672 -0.00412011 -0.00275223 0.306302 0.00225565 0.116265 0.065225 0.108544 
0.072271 0.246289 -0.27172 0.0090294 0.0813884 -0.000795731 -0.00260011 0.00921072 0.0530671 
0.065845 0.0796904 0.00566764 -0.0315876 -0.00850067 0.0298118 0.000539745 -0.101639 0.0641697 
0.0658119 -0.254659 -0.499116 -0.0279132 -1.18818 -0.0165128 -0.00227709 -0.0725923 0.0816109 
-0.270229 0.226618 -0.218667 -0.0109194 -0.031894 0.0352538 0.148456 -0.774953 -0.205621 
-0.143247 0.185506 0.162093 -0.015726 0.00417346 0.00995749 -0.0304835 0.144902 -0.144373 
0.0675248 -0.167571 -0.0393616 -2.01302 -0.0178598 -0.0291155 0.00464406 -0.0201496 -0.0434009 
-0.00671414 -0.0830224 0.0237917 0.442188 -0.102074 -0.36078 0.285316 0.00315437 -0.0841135 
0.00914017 -0.00193301 -0.374169 -0.0115736 -0.414169 -0.0173553 -0.0169315 -0.23247 0.0164716 
-0.307187 0.50805 -0.0127111 0.0176621 -0.0722319 -0.0633989 0.0078924 0.00398707 -0.728982 
0.00237567 -0.172665 -0.0040544 0.0152547 -0.0136029 0.0145799 0.545542 -0.000213645 0.00875639 
0.13093 0.627403 -0.00374887 0.0185268 -0.0117017 0.00777084 -0.0854945 0.00433677 0.0169812 
0.0107267 0.0215536 -0.0429669 -0.0556669 -0.692004 -0.0284658 0.0590423 0.011971 -1.0955 
-0.0118082 -1.67028 -0.00167009 0.11653 0.00890457 0.0203814 -0.0488813 0.178829 -0.0146119 
0.00998519 0.160115 0.00673627 0.10131 -0.0219999 -0.00788611 -0.0577386 -0.0275889 -0.0102139 
0.00115809 -0.0138545 0.279853 -0.0611811 0.207249 0.0104689 -0.0443921 -0.0320646 -0.0468504 
0.035197 0.0182989 0.0563696 -0.637214 -0.029444 0.103839 -0.205135 -0.0257995 -0.303667 
-0.0450324 0.142147 -0.0839911 -0.0321494 0.0241778 -0.0316852 -0.496219 0.019565 0.053864 
0.00304659 -0.346679 -0.0551727 0.0105745 0.0732742 0.100619 0.0147117 0.0238853 0.107424 
-0.141451 0.0889392 0.0126825 0.0244229 -1.08701 0.105046 0.033535 -5.48052 0.185964 
-0.00104631 -0.0123192 -0.0282131 -0.339087 -0.066127 0.0272603 -0.444463 -0.00103517 -0.0499196 
-0.0466149 0.196611 0.0251914 -0.0328251 -0.385213 -0.0494857 -0.63569 -0.113098 0.0830384 
-2.91043 0.447039 0.0841227 -5.46795 -0.176039 0.057335 0.0165896 0.0129914 0.11983 
-0.206721 0.0287774 0.0381549 -0.0399935 0.099842 0.0385591 0.000220486 -0.0434773 -0.286642 
-0.126634 0.115515 -0.355465 1.54036 -0.0606732 -0.231039 -0.103314 1.61786 -0.0164369 

hks 16 252 double
0.85503518972 0.8643892719 0.87409027894 0.88413547438 0.89452104761 0.90524181317 0.91629091914 0.92765958298 0.93933687252 
0.95130954793 0.96356197769 0.97607613765 0.98883169825 1.0018062 1.0149753128 1.0283131708 0.91221123385 0.92489529601 
0.9378665307 0.95111203067 0.96461603162 0.97835992776 0.99232235728 1.0064793602 1.0208046091 1.0352697099 1.0498445678 
1.064497811 1.0791972606 1.0939104369 1.108605085 1.1232497074 1.0724553228 1.0858141654 1.0994125145 1.1132181755 
1.1271966652 1.1413115293 1.1555247154 1.1697969988 1.1840884537 1.1983589657 1.212568773 1.2266790269 1.2406523585 
1.2544534362 1.2680495008 1.2814108628 0.97095490317 0.98748661045 1.0041823559 1.0210010181 1.0379001829 1.0548365834 
1.0717665736 1.088646629 1.1054338642 1.1220865618 1.1385646988 1.1548304621 1.1708487396 1.1865875761 1.2020185831 
1.21711729 0.93863497822 0.94879739519 0.95932422884 0.97019518194 0.98138849921 0.99288106723 1.0046485269 1.0166654036 
1.0289052588 1.0413408678 1.053944425 1.0666877775 1.0795426864 1.0924811108 1.105475511 1.1184991615 0.77960530271 
0.78802950687 0.79672740288 0.80571472893 0.81500623696 0.82461523484 0.83455312973 0.84482898881 0.85544913415 0.86641678823 
0.87773178569 0.88939036501 0.90138505159 0.91370463987 0.92633427883 0.93925566076 1.2319287074 1.2438931862 1.2557768003 
1.2675611701 1.2792286608 1.2907624117 1.3021463693 1.3133653279 1.3244049838 1.3352520057 1.3458941241 1.356320239 
1.3665205459 1.3764866749 1.3862118399 1.3956909916 1.0438925564 1.0577367815 1.071685139 1.0857035935 1.0997586399 
1.1138175905 1.1278488402 1.1418221067 1.1557086486 1.1694814622 1.1831154591 1.1965876254 1.2098771661 1.222965633 
1.2358370378 1.2484779487 1.2730373271 1.283707717 1.2943291844 1.3048822652 1.3153487934 1.3257118673 1.3359557994 
1.346066062 1.3560292381 1.3658329873 1.3754660339 1.3849181834 1.3941803675 1.40324472 1.4121046786 1.4207551089 
1.1569982364 1.1734955182 1.1898230108 1.2059512881 1.2218516727 1.2374964341 1.2528590026 1.2679141964 1.2826384617 
1.2970101215 1.3110096305 1.324619828 1.3378261839 1.3506170297 1.3629837665 1.3749210418 0.77224510324 0.7749872081 
0.77809096285 0.78158663725 0.785503285 0.78986826334 0.79470674141 0.80004120918 0.80589100106 0.81227184949 0.81919548451 
0.8266692955 0.83469607006 0.84327382341 0.85239572852 0.86205015388 0.64742791559 0.65078578887 0.65439522442 0.65828567441 
0.66248726173 0.66703025851 0.67194451165 0.67725882911 0.68300034325 0.68919387027 0.69586128635 0.70302094227 0.71068713792 
0.7188696774 0.72757352294 0.73679856291 0.96477317376 0.97191677142 0.97945501294 0.98739167512 0.99572880195 1.004466278 
1.0136014301 1.0231286799 1.0330392656 1.0433210536 1.0539584497 1.0649324227 1.0762206411 1.087797724 1.0996355964 
1.1117039398 1.1543443058 1.1680940286 1.1817810891 1.1953834431 1.2088798805 1.2222500839 1.2354746793 1.2485352849 
1.2614145603 1.2740962648 1.2865653267 1.2988079258 1.3108115925 1.322565321 1.3340596952 1.3452870244 0.85697349915 
0.86350551473 0.87067952507 0.87848059939 0.88689093385 0.89589002102 0.90545481276 0.9155598772 0.9261775534 0.93727810921 
0.94882990933 0.96079960135 0.97315232685 0.98585196393 0.99886140485 1.0121428705 1.140951148 1.1528636795 1.1647589236 
1.1766260008 1.1884544354 1.200234011 1.2119546376 1.2236062405 1.2351786788 1.2466617039 1.2580449597 1.2693180297 
1.280470529 1.2914922398 1.3023732837 1.3131043253 1.0580556603 1.0707554374 1.0837080106 1.0968743159 1.1102152775 
1.1236921366 1.1372667543 1.1509018884 1.1645614444 1.1782107044 1.1918165363 1.2053475868 1.2187744625 1.232069901 
1.2452089344 1.2581690461 0.63649365732 0.6332404518 0.63034949477 0.62784776572 0.62576245853 0.62412072914 0.62294939119 
0.62227456224 0.6221212663 0.62251300117 0.62347128219 0.62501517623 0.62716084219 0.62992109514 0.63330501215 0.63731759731 
0.75979967597 0.76180745567 0.76417369952 0.76692337734 0.77008306635 0.77368030764 0.77774285736 0.78229786008 0.78737097635 
0.79298550051 0.79916150577 0.80591505355 0.81325750141 0.82119493978 0.82972778174 0.83885052301 0.7791641613 0.7833445982 
0.78785670949 0.79271990906 0.79795448906 0.80358110344 0.80962017745 0.81609126368 0.82301236919 0.8303992808 0.83826491717 
0.84661873559 0.8554662202 0.86480847482 0.8746419392 0.88495824192 0.87808810801 0.8922750813 0.90668772521 0.92130602162 
0.93610879094 0.95107374195 0.96617754262 0.98139591624 0.99670376646 1.0120753338 1.0274843849 1.0429044331 1.0583089902 
1.0736718423 1.0889673469 1.1041707427 0.78180914881 0.78768604183 0.79393838268 0.800578116 0.80761629172 0.81506273519 
0.82292570653 0.83121156189 0.83992443048 0.84906592132 0.85863487324 0.86862716049 0.87903556424 0.88984971784 0.90105613053 
0.91263829112 0.54480248437 0.54666816192 0.54866507999 0.55081998739 0.55316020813 0.55571326586 0.5585064849 0.56156657545 
0.56491921165 0.56858861166 0.57259712995 0.57696487192 0.5817093413 0.58684513013 0.59238366063 0.5983329869 0.65125924653 