# vtk DataFile Version 5.1
vtk output
ASCII
DATASET POLYDATA
POINTS 252 float
0.741992 -0.493919 0.022484 0.700251 -0.503911 0.002356 0.727611 -0.482402 -0.018643 
0.696629 -0.354681 0.012194 0.708604 -0.455421 0.033717 0.705979 -0.412111 -0.020224 
0.663736 -0.345533 -0.023848 0.646122 -0.360497 -0.00942 0.637029 -0.234743 0.026807 
0.667469 -0.405326 0.020886 0.679211 -0.311612 -0.013719 0.619719 -0.2653 0.02317 
0.640597 -0.262401 -0.030034 0.649089 -0.221874 -0.010354 0.557583 -0.131694 -0.030909 
0.577163 -0.195303 -0.028319 0.596815 -0.25105 -0.00178 0.572444 -0.142636 0.026663 
0.528892 -0.158833 -0.023935 0.577511 -0.130508 -0.006719 0.483727 -0.070214 0.017737 
0.537978 -0.16491 0.01831 0.458254 -0.088258 -0.037287 0.418709 -0.119867 -0.010329 
0.44778 -0.099933 0.03205 0.470136 -0.061108 -0.013777 0.38745 -0.025611 -0.02396 
0.350602 -0.117119 -0.0024 0.362531 -0.088118 0.043103 0.366439 -0.077305 -0.052542 
0.389569 -0.040366 0.029526 0.364047 0.048416 0.060899 0.257322 -0.152497 0.028553 
0.234932 -0.162423 -0.022412 0.357457 -0.001957 0.086285 0.311326 -0.114259 -0.061783 
0.345839 0.016122 -0.104298 0.362194 0.051046 -0.067319 0.29762 -0.116795 0.064858 
0.346173 0.079481 -0.041485 0.27848 -0.063224 -0.110512 0.278039 -0.057125 0.107993 
0.2016 -0.144949 -0.073221 0.318482 0.113127 -0.102285 0.168901 -0.16857 0.032709 
0.331583 0.107258 0.033231 0.328245 0.119513 0.080371 0.376671 0.192969 -0.092024 
0.160134 -0.063534 -0.114065 0.351456 0.21309 0.124535 0.157331 -0.129491 0.092756 
0.315352 0.040583 0.116566 0.158541 -0.127303 -0.094537 0.320038 0.140756 -0.054108 
0.266212 -0.008434 -0.128804 0.309079 0.150382 0.110562 0.310977 0.155827 0.052758 
0.363506 0.300573 -0.10906 0.283097 0.130297 0.018575 0.271223 0.062318 -0.13474 
0.093691 -0.16966 -0.054858 0.06484 -0.186698 0.005545 0.061374 -0.132234 -0.099553 
0.383431 0.205318 0.090682 0.227249 -0.007983 0.128883 0.059231 -0.157616 0.074639 
0.333139 0.230049 0.06869 0.293079 0.123455 -0.01761 0.300336 0.17807 -0.124137 
0.288426 0.18409 0.125268 0.367075 0.232534 -0.074522 0.31074 0.235658 0.118789 
0.070659 -0.120196 0.102171 0.293477 0.16613 -0.049661 0.344523 0.338439 0.142328 
-0.035014 -0.193087 0.005332 0.341988 0.226791 -0.12216 0.138236 -0.023831 0.112229 
0.307217 0.224811 -0.06324 0.322826 0.296512 -0.120222 0.188849 0.18036 0.126859 
0.253947 0.086951 0.126859 0.303307 0.242348 0.08702 0.358873 0.360353 0.116387 
-0.04733 -0.056276 0.120505 0.255583 0.223467 0.086189 0.307163 0.229855 -0.113676 
0.183351 0.022153 -0.134643 0.302622 0.238427 -0.080456 0.223818 0.210579 0.115711 
0.308567 0.32516 0.119712 0.206868 0.160766 0.02956 0.193286 0.179268 -0.13145 
0.166108 0.054882 0.127566 0.297697 0.330663 -0.091206 0.188115 0.118719 -0.136132 
0.233603 0.206254 -0.06849 0.342287 0.328995 0.085982 0.314685 0.328894 0.084564 
0.20054 0.206363 0.075795 0.157553 0.162048 -0.04816 -0.025076 -0.178671 -0.044833 
0.093309 0.089496 0.092884 0.325444 0.322223 -0.067064 0.155722 0.143941 0.001325 
0.079435 -0.00353 0.105969 0.297563 0.37417 -0.135073 0.181229 0.202856 -0.108123 
-0.08877 -0.136515 0.088066 0.325569 0.388924 -0.123275 0.135785 0.150425 0.041027 
0.091651 -0.064293 -0.116105 0.309829 0.351606 0.149779 0.345282 0.370329 -0.072701 
0.302126 0.400757 0.081312 0.10022 0.082207 -0.102366 0.151855 0.181581 0.101113 
0.130817 0.1441 -0.114958 0.259199 0.381577 -0.091238 0.30468 0.400089 0.149329 
0.010133 0.099735 0.073296 0.258377 0.379238 0.119791 -0.134517 -0.138293 -0.087456 
0.288287 0.408175 -0.068019 0.082765 0.138248 -0.036444 0.09305 0.129508 -0.081432 
-0.161987 -0.191631 -0.023052 0.061704 0.113274 -0.070047 0.072965 0.136786 0.024151 
-0.086047 -0.17731 0.049545 -0.021201 -0.039549 -0.122035 0.077746 0.115371 0.070552 
0.05196 0.066562 -0.090652 -0.075674 -0.073548 -0.116984 -0.18489 -0.199343 0.018802 
-0.15408 -0.167021 -0.066821 -0.239839 -0.21003 -0.060147 -0.021049 0.08838 -0.083605 
-0.197414 -0.14407 -0.1008 -0.079109 0.016317 -0.116143 -0.157532 -0.170055 0.070053 
-0.068474 0.010017 0.11636 -0.218896 -0.156259 0.097332 -0.017329 0.116591 -0.054305 
-0.143039 -0.086475 0.109517 -0.202536 -0.075427 0.120226 -0.158288 -0.066196 -0.114146 
-0.029638 0.119233 0.043082 -0.152631 0.026735 0.110543 -0.153269 0.123946 -0.038688 
-0.327068 -0.24292 -0.031378 -0.148132 0.06278 -0.105043 -0.284968 -0.192905 -0.078597 
-0.290079 -0.223193 0.058836 -0.033927 0.125121 -0.005009 -0.313788 -0.248635 0.017181 
-0.115114 0.118839 0.049428 -0.290663 -0.184048 0.085365 -0.179733 0.050423 -0.118512 
-0.180242 0.036975 0.118366 -0.144146 0.114756 -0.06624 -0.233304 -0.016331 0.120325 
-0.462857 -0.222254 0.072577 -0.39967 -0.228551 -0.054912 -0.241931 0.042243 -0.11476 
-0.29688 -0.114961 -0.097386 -0.284243 -0.093562 0.105572 -0.184062 0.124683 -0.107502 
-0.323325 -0.141032 0.089565 -0.242234 0.09888 0.111537 -0.157225 0.124995 0.043985 
-0.440542 -0.24586 0.013379 -0.136399 0.080935 0.09254 -0.341008 -0.127962 -0.080787 
-0.208196 0.15042 0.10497 -0.226307 -0.029257 -0.123603 -0.216993 0.109784 0.009286 
-0.179044 0.145333 0.080458 -0.214283 0.183752 -0.074973 -0.329136 -0.003719 -0.074002 
-0.403003 -0.206237 0.079884 -0.417606 -0.199523 -0.082556 -0.397615 -0.099993 0.066459 
-0.273249 0.010869 0.104776 -0.351199 -0.015357 0.049134 -0.273316 0.042894 -0.100262 
-0.478353 -0.231621 -0.055502 -0.372809 -0.088734 -0.045563 -0.252123 0.093582 -0.004241 
-0.329396 -0.021315 0.078085 -0.35731 -0.096624 0.067702 -0.375247 -0.062996 0.002118 
-0.419059 -0.170807 0.095419 -0.293539 0.065899 -0.05032 -0.286096 0.067019 0.069507 
-0.199779 0.127481 -0.050052 -0.289931 0.207147 -0.10521 -0.49131 -0.195959 -0.102913 
-0.281596 0.10979 -0.06642 -0.291604 0.127592 0.064068 -0.319847 0.044033 0.04236 
-0.337389 0.030176 -0.025672 -0.513368 -0.226185 0.042997 -0.492989 -0.157182 0.100816 
-0.216137 0.177416 0.063745 -0.229979 0.12461 0.034649 -0.246961 0.137035 -0.036274 
-0.266328 0.117164 0.041908 -0.533469 -0.219694 -0.071983 -0.284321 0.146159 0.100439 
-0.256283 0.132449 -0.109137 -0.542935 -0.201615 0.053683 -0.415339 -0.060463 -0.014479 
-0.537129 -0.21285 -0.039067 -0.248327 0.20085 0.08933 -0.547964 -0.174594 -0.057844 
-0.485905 -0.114865 0.097485 -0.453742 -0.067627 0.060048 -0.304181 0.252314 0.073402 
-0.498822 -0.108591 -0.090803 -0.442991 -0.095782 -0.076005 -0.322929 0.21905 0.03973 
-0.515852 -0.085256 0.078047 -0.572052 -0.143144 0.004861 -0.559175 -0.114829 -0.054531 
-0.508274 -0.012016 0.002336 -0.55957 -0.120175 0.060975 -0.367399 0.229885 0.088611 
-0.317954 0.223173 0.100811 -0.387675 0.241585 0.061442 -0.5701 -0.090984 0.004024 
-0.525363 -0.048934 -0.044947 -0.329648 0.223546 -0.043777 -0.283189 0.225787 -0.059689 
-0.305943 0.25836 -0.091908 -0.341394 0.200879 -0.083012 -0.552598 -0.020575 -0.006655 
-0.380703 0.261548 -0.102904 -0.393988 0.259863 0.039333 -0.368504 0.2955 -0.04348 
-0.358401 0.267232 0.041527 -0.36887 0.31179 -0.081778 -0.381089 0.29365 0.099882 
-0.40265 0.306945 0.065269 -0.377633 0.260146 -0.04612 -0.432769 0.29148 0.036996 
-0.446194 0.285214 0.110925 -0.436619 0.277776 -0.111933 -0.456846 0.245731 0.073309 
-0.439535 0.250703 -0.069391 -0.405979 0.308976 -0.112312 -0.428583 0.301191 -0.042638 

POLYGONS 501 1500
OFFSETS vtktypeint64
0 3 6 9 12 15 18 21 24 
27 30 33 36 39 42 45 48 51 
54 57 60 63 66 69 72 75 78 
81 84 87 90 93 96 99 102 105 
108 111 114 117 120 123 126 129 132 
135 138 141 144 147 150 153 156 159 
162 165 168 171 174 177 180 183 186 
189 192 195 198 201 204 207 210 213 
216 219 222 225 228 231 234 237 240 
243 246 249 252 255 258 261 264 267 
270 273 276 279 282 285 288 291 294 
297 300 303 306 309 312 315 318 321 
324 327 330 333 336 339 342 345 348 
351 354 357 360 363 366 369 372 375 
378 381 384 387 390 393 396 399 402 
405 408 411 414 417 420 423 426 429 
432 435 438 441 444 447 450 453 456 
459 462 465 468 471 474 477 480 483 
486 489 492 495 498 501 504 507 510 
513 516 519 522 525 528 531 534 537 
540 543 546 549 552 555 558 561 564 
567 570 573 576 579 582 585 588 591 
594 597 600 603 606 609 612 615 618 
621 624 627 630 633 636 639 642 645 
648 651 654 657 660 663 666 669 672 
675 678 681 684 687 690 693 696 699 
702 705 708 711 714 717 720 723 726 
729 732 735 738 741 744 747 750 753 
756 759 762 765 768 771 774 777 780 
783 786 789 792 795 798 801 804 807 
810 813 816 819 822 825 828 831 834 
837 840 843 846 849 852 855 858 861 
864 867 870 873 876 879 882 885 888 
891 894 897 900 903 906 909 912 915 
918 921 924 927 930 933 936 939 942 
945 948 951 954 957 960 963 966 969 
972 975 978 981 984 987 990 993 996 
999 1002 1005 1008 1011 1014 1017 1020 1023 
1026 1029 1032 1035 1038 1041 1044 1047 1050 
1053 1056 1059 1062 1065 1068 1071 1074 1077 
1080 1083 1086 1089 1092 1095 1098 1101 1104 
1107 1110 1113 1116 1119 1122 1125 1128 1131 
1134 1137 1140 1143 1146 1149 1152 1155 1158 
1161 1164 1167 1170 1173 1176 1179 1182 1185 
1188 1191 1194 1197 1200 1203 1206 1209 1212 
1215 1218 1221 1224 1227 1230 1233 1236 1239 
1242 1245 1248 1251 1254 1257 1260 1263 1266 
1269 1272 1275 1278 1281 1284 1287 1290 1293 
1296 1299 1302 1305 1308 1311 1314 1317 1320 
1323 1326 1329 1332 1335 1338 1341 1344 1347 
1350 1353 1356 1359 1362 1365 1368 1371 1374 
1377 1380 1383 1386 1389 1392 1395 1398 1401 
1404 1407 1410 1413 1416 1419 1422 1425 1428 
1431 1434 1437 1440 1443 1446 1449 1452 1455 
1458 1461 1464 1467 1470 1473 1476 1479 1482 
1485 1488 1491 1494 1497 1500 
CONNECTIVITY vtktypeint64
89 71 85 102 80 116 50 41 64 
84 77 105 77 84 72 148 172 159 
159 172 174 72 84 144 144 148 145 
49 63 74 71 49 74 71 74 90 
55 49 69 69 49 71 69 71 89 
80 69 89 51 55 81 81 55 69 
81 69 80 80 89 116 93 81 80 
41 51 64 64 51 81 64 81 93 
93 80 102 77 93 102 77 50 64 
77 64 93 84 105 141 169 159 174 
144 141 148 144 84 141 145 148 159 
145 159 161 183 161 159 183 159 169 
166 145 161 197 215 219 220 197 219 
220 181 197 138 152 165 138 136 152 
175 165 179 138 165 175 185 175 179 
146 138 175 146 122 138 164 175 185 
158 175 164 139 133 146 133 122 146 
133 62 122 164 185 210 158 164 210 
146 175 158 151 146 158 151 139 146 
139 130 133 62 133 111 52 60 62 
158 210 167 151 158 167 132 130 139 
130 111 133 48 62 111 237 249 247 
250 237 247 196 237 250 237 196 235 
196 210 235 178 196 234 167 210 196 
167 196 178 160 151 167 137 139 151 
132 139 137 111 130 132 52 62 48 
40 42 52 241 234 250 234 196 250 
115 111 132 87 48 115 48 111 115 
40 52 48 160 167 178 210 198 235 
247 251 250 210 185 198 149 137 160 
251 239 241 42 35 33 35 42 40 
137 151 160 149 160 195 195 160 178 
195 178 206 206 178 233 206 233 232 
178 234 233 235 232 244 232 233 239 
235 244 237 244 232 239 237 244 249 
244 239 251 241 250 251 249 244 251 
42 33 60 206 232 198 198 232 235 
247 249 251 52 42 60 188 206 198 
193 188 198 185 193 198 60 101 62 
62 101 122 122 101 135 185 179 193 
87 54 48 40 48 54 125 117 115 
95 115 117 95 87 115 59 87 95 
59 54 87 36 54 59 36 40 54 
36 29 40 107 117 125 107 92 117 
92 95 117 43 36 59 92 59 95 
68 59 92 37 36 43 88 92 107 
88 86 92 86 68 92 43 59 68 
76 68 86 76 47 68 86 79 76 
47 76 57 106 94 118 106 79 94 
88 94 79 57 79 106 57 76 79 
106 118 123 109 106 123 109 57 106 
113 57 109 70 57 113 72 50 77 
44 38 50 242 243 246 227 228 242 
228 218 242 214 218 228 209 174 228 
174 214 228 214 204 218 214 177 204 
174 177 214 174 172 177 172 170 177 
156 170 172 172 120 156 141 120 172 
38 41 50 218 243 242 105 120 141 
77 102 105 120 102 131 105 102 120 
38 28 41 116 110 131 41 34 51 
41 28 34 30 34 28 243 245 246 
177 205 204 32 38 44 131 110 128 
29 23 27 24 27 23 83 114 119 
153 157 180 157 168 180 168 192 180 
192 182 216 216 217 222 180 192 162 
203 192 216 203 216 226 211 203 226 
226 216 222 192 203 211 162 192 211 
202 162 211 215 208 213 112 74 119 
74 83 119 121 112 119 74 63 83 
90 74 112 90 112 121 12 16 15 
12 7 16 12 6 7 10 6 12 
104 124 128 22 23 29 18 23 22 
21 23 18 14 18 22 14 15 18 
18 16 21 15 16 18 13 14 19 
14 12 15 13 12 14 10 12 13 
3 10 13 104 100 124 26 37 39 
30 25 26 25 22 26 20 25 30 
14 22 25 19 25 20 19 14 25 
8 13 19 104 67 100 100 73 96 
67 73 100 91 67 104 53 73 67 
45 67 58 26 22 29 67 39 53 
102 116 131 116 99 110 89 99 116 
51 46 55 31 46 51 51 34 31 
85 99 89 85 91 99 46 45 56 
85 66 91 71 82 85 82 66 85 
63 56 66 63 46 56 63 55 46 
63 49 55 98 82 90 66 82 98 
71 90 82 98 90 121 97 66 98 
63 66 97 83 63 97 119 114 121 
114 98 121 114 97 98 83 97 114 
191 187 212 202 171 162 155 162 171 
223 211 226 202 211 213 187 191 201 
101 75 126 188 201 200 188 193 201 
101 61 75 44 61 60 8 19 17 
110 104 128 16 11 21 154 149 156 
156 149 170 21 8 17 21 17 24 
23 21 24 28 24 30 131 128 147 
9 8 11 24 28 27 120 131 147 
147 128 154 4 3 8 9 4 8 
27 28 38 27 38 32 120 147 156 
147 154 156 4 0 3 177 170 176 
177 176 205 204 205 221 204 221 218 
218 221 240 240 221 238 240 238 245 
218 240 243 243 240 245 1 0 4 
9 1 4 33 44 60 188 195 206 
176 195 188 0 1 2 149 195 176 
170 149 176 1 9 7 5 1 7 
0 5 3 5 2 1 0 2 5 
33 27 32 7 11 16 9 11 7 
5 6 10 5 7 6 3 5 10 
154 128 124 193 179 201 60 61 101 
154 143 149 155 180 162 155 153 180 
222 236 230 226 222 230 155 134 153 
222 225 236 222 217 225 134 140 153 
191 212 217 182 191 217 182 190 191 
191 190 184 134 129 140 126 129 134 
184 200 201 184 189 200 194 188 200 
75 65 129 61 65 75 207 188 194 
61 44 65 44 50 65 238 248 245 
238 229 248 221 229 238 199 229 221 
221 207 199 205 207 221 205 188 207 
205 176 188 32 44 33 223 226 230 
217 212 225 191 184 201 126 75 129 
216 182 217 192 168 182 153 142 157 
190 189 184 168 190 182 190 168 189 
168 157 166 142 166 157 153 140 142 
168 166 189 166 183 189 142 145 166 
122 135 138 165 173 179 165 152 181 
165 181 173 173 181 220 186 208 197 
197 208 215 101 126 135 179 187 201 
135 126 136 135 136 138 179 173 187 
187 173 220 212 187 220 212 220 225 
220 231 225 152 136 150 152 150 163 
152 163 181 220 219 231 219 224 231 
231 224 230 219 215 224 181 163 186 
181 186 197 186 213 208 47 43 68 
39 67 45 140 144 142 189 183 200 
166 161 183 142 144 145 140 108 144 
129 108 140 183 169 194 72 144 108 
65 72 108 65 108 129 199 194 209 
169 209 194 65 50 72 229 246 248 
229 227 246 199 227 229 199 209 227 
209 228 227 169 174 209 141 172 148 
227 242 246 200 183 194 207 194 199 
245 248 246 11 8 21 8 3 13 
34 30 31 31 30 26 24 20 30 
17 20 24 99 91 110 91 104 110 
45 58 56 31 39 45 46 31 45 
56 58 91 66 56 91 215 223 224 
215 213 223 213 211 223 186 202 213 
186 171 202 163 171 186 224 223 230 
150 171 163 150 155 171 231 230 236 
136 155 150 225 231 236 136 134 155 
136 126 134 17 19 20 58 67 91 
31 26 39 241 233 234 239 233 241 
143 137 149 35 27 33 35 29 27 
124 143 154 127 137 143 124 127 143 
127 132 137 115 132 127 29 35 40 
125 127 124 125 115 127 124 100 125 
37 26 36 26 29 36 70 47 57 
79 86 88 96 88 107 100 107 125 
113 109 123 94 103 123 103 113 123 
94 123 118 70 113 103 88 103 94 
70 103 78 78 103 88 47 70 73 
47 73 53 43 47 53 73 70 78 
96 78 88 39 43 53 73 78 96 
96 107 100 39 37 43 
POINT_DATA 252
SCALARS k float
LOOKUP_TABLE default
2.48168 2.07525 1.28327 0.0251647 0.297874 -0.00822991 -0.000928521 -0.027063 0.117792 
0.0437821 0.0101963 -0.169343 0.0257378 0.371038 0.177232 -0.0176249 -0.323987 0.208623 
-0.428779 0.257993 0.181981 -0.474817 -0.157135 -0.494536 -0.259681 0.093333 -0.957234 
-0.531478 -0.558896 -0.688606 -0.957853 0.116391 0.103441 0.144714 0.21763 0.142409 
0.288686 0.171095 0.150915 -0.257438 0.108055 0.0983179 0.084559 -0.842409 0.0262036 
-0.257208 -1.1151 0.884028 -0.0826536 0.167097 0.0564111 0.0790166 0.0205474 -0.840051 
0.0613711 -0.280461 -0.606508 0.227471 -0.165006 0.0177833 0.0262219 0.049896 0.0578314 
1.11575 0.0840782 0.042297 -0.244251 -0.628049 -0.122023 -0.0749698 0.1709 -0.95045 
0.0317752 -0.27962 -0.0348103 0.0488387 0.105589 -0.107686 -0.463489 -0.450212 0.280933 
-0.0201141 -1.2581 0.761366 0.0355911 -0.112738 -0.838511 0.0725073 -1.15197 0.0865208 
-0.889236 -0.29013 0.177161 0.0504717 -0.740692 0.0353 -0.0333467 0.00944805 -0.533325 
0.204537 -0.343848 -0.0059934 -0.168157 -0.193163 -0.230307 -0.0279649 1.02946 0.550493 
-0.0250828 1.10167 -0.288387 -0.0254413 0.519117 0.816306 2.0362 -0.134602 0.323602 
0.178141 1.97088 1.8355 -0.119972 2.25962 -0.104418 2.18773 -0.157025 -0.266833 
-0.167325 -0.302751 -0.0806005 -0.0788572 0.0280467 -0.475238 -0.106391 0.0118495 -0.094359 
-0.110102 0.124878 -0.0571845 0.0915023 0.0194626 -0.11813 0.0319171 0.0698823 -0.064145 
-0.0972919 0.0725373 -0.0777537 -0.0642759 -0.0988492 -0.114147 0.12334 -0.282441 -0.015729 
0.105869 -0.0435125 0.221043 -0.0509013 -0.0197974 0.0502574 0.0334466 -0.834503 0.0597652 
0.294153 -0.0224025 -0.0159951 -0.106903 0.0232128 0.183692 -0.197694 -0.11849 -0.631966 
0.081355 -0.399082 -0.257656 0.125639 0.0950078 -0.195104 -0.241174 0.0569026 0.12494 
-0.0332353 -0.229381 -0.230744 -0.0749529 0.150823 -0.167344 0.0318539 -0.577479 -0.864054 
0.0855805 -0.572577 -1.26003 -0.0860168 -0.464505 -0.920608 -0.337299 -0.1587 0.619763 
-1.15436 -0.62066 0.0937526 0.225568 0.236887 0.380619 0.185448 -0.555825 -0.731685 
-0.723578 1.12704 -0.257222 -0.261807 0.512006 -0.24804 -0.0719559 0.0489577 -0.0397521 
0.228741 0.0271702 0.0615018 0.299486 -0.0456703 -0.200617 0.223622 0.205735 0.405398 
0.80566 0.494049 -0.41417 -0.0917625 -0.774844 -0.0183099 0.0628522 -0.18816 -0.0718861 
0.0638354 -0.183814 1.51133 -0.771974 -0.0456339 0.477704 0.188164 0.547393 0.44477 
0.636067 -0.668936 1.69798 2.02547 1.67366 2.22061 1.84512 1.17609 1.92047 

FIELD FieldData 7
h 1 252 float
15.6256 -3.35181 5.3883 2.7294 1.45583 3.38576 0.654268 -0.951413 3.16332 
6.86049e-05 3.46959 0.629885 1.61709 2.69747 1.96802 1.0769 6.3601 1.36395 
0.144473 1.51535 2.65488 0.922281 0.551377 1.84339 0.00433803 0.686734 2.76524 
10.2884 0.20799 0.630913 1.80275 2.02605 5.45146 9.95813 1.30692 0.774322 
1.53655 2.44709 0.523024 -1.16319 0.747662 0.5806 2.75335 2.1943 7.42647 
-0.670873 1.84343 3.7042 1.05627 0.176244 0.977362 1.28168 1.58137 1.65807 
1.07784 0.882059 -0.164859 5.24645 -0.108288 1.46474 6.77377 10.9714 2.29537 
4.08685 0.91575 4.56837 0.627585 -1.79732 0.771564 0.552427 1.37952 0.602524 
1.39294 -1.30502 0.400596 9.13067 0.165529 1.06949 -0.395444 0.373174 0.883359 
1.06351 -7.28571 0.71256 1.14559 0.428523 1.44132 1.5022 -1.88932 6.32776 
2.10819 0.569873 1.91437 1.023 -10.3591 1.45504 -0.148092 0.0624242 -5.54058 
0.469869 1.39492 5.28404 0.450142 -2.41007 -2.92168 0.619086 1.424 -1.59365 
2.47259 2.2032 0.0057506 0.785039 2.56821 1.07177 1.5757 0.869645 3.15822 
3.56961 4.59199 1.97744 1.04097 2.91506 1.64683 0.869477 0.172378 2.02953 
7.58063 1.58969 1.04461 5.72497 1.05866 3.13448 0.957868 1.22625 7.90779 
3.93165 7.09908 1.91212 1.39727 1.14146 3.54681 1.11368 1.45886 1.79742 
1.2453 1.34159 0.937451 2.84009 1.23442 2.7275 8.27155 1.45303 2.21416 
5.13612 1.44287 10.3506 1.96269 1.07257 1.27806 1.66183 2.49924 1.60267 
6.05413 7.24689 1.32382 0.922868 1.12229 2.4437 1.28118 1.33151 3.11851 
9.30011 2.03651 0.163232 1.45327 1.34168 0.984399 0.724668 1.69859 0.725957 
3.6645 1.26579 1.15276 1.34027 2.25398 1.19212 6.08552 0.166393 0.0455053 
0.906319 1.09731 -2.24808 2.95722 1.31583 1.02663 0.762669 -0.0951653 3.14082 
-0.164172 -1.96553 0.972575 2.02658 5.91578 6.02794 0.90689 -0.492439 -0.92537 
-2.63687 8.61694 0.217236 0.772651 6.74937 0.966131 7.67532 5.30281 6.97944 
3.6015 1.09564 1.52215 4.5126 1.47822 0.0450507 4.6856 25.5903 9.70772 
7.4793 9.07032 -0.267981 -0.242016 -0.249463 16.9779 4.15087 -1.56891 0.821613 
4.54134 4.36665 10.2276 -1.12024 -2.83534 1.61371 2.67025 0.66456 0.892993 
1.21763 -6.67939 1.76612 0.210694 1.31196 3.05303 -1.2049 0.846165 3.03446 

kmin 1 252 float
28.3769 -1.3597 10.4301 4.86822 3.51347 6.25526 2.58531 1.69291 7.55834 
1.89031 7.13864 5.47462 4.9227 5.26008 3.9413 4.26446 17.8745 3.82771 
0.995951 2.66222 5.37833 3.63557 1.06595 5.36678 0.552186 1.90253 6.4194 
21.5445 1.18764 1.77789 4.25014 4.79457 11.618 20.4361 3.30128 2.02363 
3.2131 6.07656 1.35278 0.828629 1.12759 1.23039 5.61478 5.4719 15.1361 
0.96015 4.93978 5.81467 1.72384 1.33442 1.55749 2.17235 2.99614 6.4203 
1.43133 2.35373 2.70301 12.1714 2.26934 1.74667 13.6516 21.8889 4.23477 
6.48024 1.31438 8.97738 2.52328 2.20437 1.21433 1.56927 2.65536 4.06115 
2.31971 1.6605 2.3553 18.1641 1.61875 1.79164 4.84012 2.90253 1.88873 
1.88198 -4.38814 1.6918 1.75572 4.00716 4.73846 2.58323 0.447157 13.0194 
3.32097 3.5848 2.61433 1.86583 2.73465 2.39555 3.40495 2.31667 -0.716534 
3.64922 5.4511 10.4834 1.03157 0.412318 1.46815 0.974602 4.91793 -0.581127 
4.65485 4.22418 1.86897 0.947848 6.42979 3.34379 4.83785 1.47685 8.42944 
7.73171 13.4983 4.52441 2.23126 8.9452 2.97923 3.43481 0.862245 4.5078 
15.1299 3.57671 2.55108 11.2563 1.53355 7.98457 1.66793 1.96342 16.1274 
7.72276 14.2246 4.12048 2.26435 2.09531 6.80708 2.00624 2.38456 3.93328 
2.09895 2.18279 1.44678 6.47098 2.37458 5.62419 16.0477 3.32089 3.97875 
9.78303 3.64216 20.5618 4.69607 1.62092 2.24247 3.38746 5.29485 2.66823 
11.8662 13.8198 2.15839 1.26233 1.58436 6.02268 2.02647 1.91525 6.94092 
18.0473 4.92093 0.496319 3.37834 2.055 1.83084 3.95688 6.20127 1.19655 
7.05324 2.49433 1.94465 1.91173 6.04176 1.88147 11.721 1.09819 1.94496 
1.17598 2.35079 -0.585545 5.63635 2.467 2.49676 4.20379 0.869906 6.89317 
3.22521 -1.1132 1.95389 4.55333 11.8414 10.9672 3.9916 2.21273 1.6557 
1.30854 13.2522 2.6261 1.5492 12.2898 2.90326 9.2271 12.2805 12.5678 
8.19757 1.5151 5.26329 9.61895 2.32985 2.03242 10.1767 31.4945 17.334 
22.5531 13.1539 2.70179 1.04956 2.71499 30.5567 9.44276 1.36451 4.23906 
11.8075 9.46927 15.9199 1.14828 1.04497 6.28247 8.737 2.25283 3.3715 
2.62365 -3.35914 4.45799 1.35403 3.1362 9.65156 3.13524 2.72502 6.87393 

kmax 1 252 float
2.87429 -5.34392 0.346503 0.590584 -0.601806 0.516262 -1.27677 -3.59573 -1.2317 
-1.89018 -0.199458 -4.21485 -1.68852 0.134861 -0.00525179 -2.11066 -5.15427 -1.09981 
-0.707005 0.368478 -0.0685837 -1.79101 0.0368079 -1.67999 -0.54351 -0.529066 -0.88892 
-0.967775 -0.771663 -0.516063 -0.644632 -0.742473 -0.715087 -0.519855 -0.687435 -0.474982 
-0.140002 -1.18238 -0.306728 -3.15501 0.367733 -0.0691942 -0.108085 -1.0833 -0.283199 
-2.3019 -1.25293 1.59373 0.388698 -0.981931 0.397234 0.391003 0.166604 -3.10416 
0.72435 -0.589617 -3.03273 -1.67853 -2.48591 1.1828 -0.104016 0.0537954 0.355978 
1.69347 0.517121 0.159366 -1.26811 -5.79901 0.328796 -0.464421 0.103672 -2.8561 
0.466167 -4.27053 -1.5541 0.0972102 -1.28769 0.347335 -5.63101 -2.15618 -0.122008 
0.245045 -10.1833 -0.266679 0.535458 -3.15012 -1.85582 0.421167 -4.22579 -0.363904 
0.895421 -2.44505 1.21442 0.18018 -23.4529 0.514531 -3.70113 -2.19182 -10.3646 
-2.70948 -2.66125 0.0846922 -0.131282 -5.23245 -7.3115 0.26357 -2.06992 -2.60616 
0.29033 0.182233 -1.85747 0.622231 -1.29337 -1.20026 -1.68646 0.26244 -2.11301 
-0.592494 -4.31437 -0.569525 -0.149331 -3.11508 0.314436 -1.69586 -0.517489 -0.448733 
0.0313807 -0.397323 -0.461853 0.193604 0.583769 -1.71562 0.247812 0.489085 -0.311849 
0.140547 -0.0264613 -0.296239 0.530196 0.187599 0.286533 0.221117 0.533166 -0.338437 
0.391653 0.500393 0.428118 -0.790813 0.0942646 -0.169188 0.495381 -0.414835 0.449581 
0.489219 -0.756418 0.139401 -0.770678 0.524226 0.313639 -0.0638009 -0.296373 0.537115 
0.242093 0.673997 0.489238 0.583406 0.660214 -1.13528 0.535888 0.747778 -0.703895 
0.552933 -0.847903 -0.169855 -0.471786 0.628365 0.137954 -2.50755 -2.80409 0.255367 
0.275765 0.0372409 0.360865 0.768809 -1.53379 0.502762 0.450068 -0.765402 -1.85395 
0.636663 -0.156169 -3.91061 0.278078 0.164655 -0.443507 -2.67846 -1.06024 -0.611527 
-3.55356 -2.81785 -0.00873856 -0.500165 -0.00982044 1.08869 -2.17782 -3.19761 -3.50644 
-6.58227 3.98166 -2.19163 -0.00390175 1.20894 -0.971 6.12354 -1.67487 1.39108 
-0.99458 0.676168 -2.21899 -0.593755 0.626596 -1.94231 -0.805455 19.6861 2.08141 
-7.59448 4.98674 -3.23775 -1.53359 -3.21392 3.3991 -1.14101 -4.50234 -2.59584 
-2.72485 -0.735963 4.5354 -3.38876 -6.71564 -3.05504 -3.3965 -0.923707 -1.58551 
-0.188392 -9.99964 -0.925751 -0.932644 -0.512268 -3.54549 -5.54505 -1.03269 -0.80501 

hks 16 252 double
1.8842443979 1.9069797758 1.9298744089 1.9529417622 1.9761960386 1.9996518722 2.0233240275 2.0472271103 2.0713752983 
2.0957820938 2.120460103 2.1454208466 2.1706746006 2.1962302717 2.2220953056 2.2482756277 1.8107071287 1.8356571187 
1.8607057901 1.8858616721 1.9111346804 1.9365358166 1.962076862 1.987770076 2.0136279043 2.0396627037 2.065886489 
2.0923107048 2.1189460276 2.1458021985 2.1728878884 2.2002105968 1.9419457743 1.9635678982 1.9853844549 2.0074072985 
2.0296493067 2.052124089 2.0748456885 2.0978282836 2.1210858978 2.1446321225 2.1684798603 2.1926410916 2.2171266711 
2.2419461547 2.2671076616 2.2926177708 1.5447420097 1.572076808 1.5996619855 1.6274794408 1.655512789 1.6837473453 
1.7121700756 1.7407695202 1.7695356948 1.7984599753 1.8275349726 1.8567543999 1.8861129409 1.9156061194 1.9452301767 
1.9749819562 1.667854515 1.6933336588 1.7190567756 1.7450173114 1.7712097465 1.7976294829 1.8242727221 1.8511363354 
1.8782177341 1.9055147428 1.9330254784 1.9607482403 1.9886814108 2.0168233708 2.0451724283 2.0737267634 1.7472214166 
1.7733015534 1.7995016952 1.8258229377 1.8522679055 1.8788405378 1.9055458628 1.9323897657 1.9593787571 1.9865197464 
2.0138198262 2.0412860713 2.0689253561 2.096744193 2.1247485941 2.152943957 1.4603868619 1.4881365651 1.516216148 
1.5446003677 1.5732650968 1.6021874421 1.6313458351 1.6607200971 1.6902914807 1.7200426897 1.7499578799 1.7800226436 
1.8102239805 1.8405502559 1.8709911497 1.901537598 1.429513962 1.4577114166 1.4862186792 1.5150092683 1.5440582026 
1.5733420977 1.6028392271 1.6325295523 1.6623947238 1.6924180588 1.7225844988 1.7528805512 1.7832942193 1.8138149236 
1.8444334178 1.8751417012 1.1155952028 1.1391697467 1.1632823302 1.1879025438 1.2129995791 1.2385425461 1.2645007689 
1.2908440573 1.3175429516 1.344568937 1.371894629 1.3994939268 1.4273421382 1.4554160742 1.4836941173 1.5121562637 
1.4930894214 1.5199731686 1.5472686454 1.5749426004 1.6029632035 1.6313002821 1.6599255085 1.6888125373 1.717937095 
1.7472770251 1.7768122923 1.8065249503 1.8363990791 1.8664206951 1.8965776422 1.9268594667 1.417440934 1.4450121437 
1.4729482165 1.5012205131 1.5298013711 1.558664297 1.587784128 1.6171371615 1.6467012533 1.6764558858 1.7063822087 
1.7364630522 1.7666829175 1.7970279457 1.8274858692 1.858045947 1.1700530121 1.1935016514 1.2175828007 1.2422601812 
1.2674965313 1.2932540848 1.3194950283 1.3461819282 1.3732781208 1.4007480591 1.4285576127 1.4566743173 1.4850675751 
1.5137088038 1.5425715388 1.5716314907 1.1736930733 1.1965750643 1.2200591442 1.244119877 1.2687300596 1.2938610611 
1.3194831733 1.3455659638 1.3720786255 1.3989903161 1.4262704804 1.4538891517 1.4818172254 1.5100267034 1.5384909049 
1.5671846426 1.1144574101 1.1378664944 1.161852505 1.1863791457 1.2114099562 1.2369087158 1.2628398113 1.2891685654 
1.3158615214 1.3428866825 1.3702137047 1.3978140452 1.425661066 1.4537300994 1.4819984748 1.5104455149 0.84838401613 
0.8599675511 0.87205027527 0.88463424332 0.8977197974 0.91130562126 0.92538881339 0.93996497636 0.95502831937 0.97057177092 
0.98658709867 1.0030650337 1.0199953967 1.0373672242 1.0551688924 1.0733882392 1.0007572041 1.0139304068 1.0278293177 
1.0424541131 1.0578008586 1.0738616757 1.0906249707 1.1080757199 1.1261958007 1.1449643591 1.1643582038 1.1843522156 
1.2049197623 1.2260331101 1.2476638214 1.2697831322 1.0662334432 1.0841040036 1.1026683869 1.1219136837 1.1418237323 
1.1623794045 1.1835589322 1.2053382632 1.2276914394 1.2505909859 1.2740083039 1.2979140573 1.3222785461 1.3470720594 
1.3722652024 1.3978291916 0.8380096519 0.84380700535 0.85024234129 0.85732269729 0.86505203787 0.87343136648 0.88245887816 
0.89213014684 0.90243834053 0.91337445739 0.92492757565 0.93708511047 0.94983307134 0.9631563142 0.97703878343 0.99146373957 
0.84484469234 0.85162941367 0.85897065401 0.86688156835 0.87537293423 0.88445307722 0.89412783264 0.90440054322 0.91527209187 
0.92674096756 0.93880336182 0.9514532928 0.9646827533 0.97848187877 0.99283913136 1.0077414958 0.84690094963 0.85748426024 
0.86862272431 0.88031510549 0.89255811122 0.90534655517 0.91867353711 0.93253063435 0.94690809876 0.96179505392 0.97717968756 
0.99304943511 1.0093911512 1.0261912666 1.0434359298 1.0611111316 0.73353303867 0.73259815106 0.73211516461 0.73209933764 
0.73256398401 0.73352052193 0.73497854701 0.73694592519 0.73942890091 0.74243221564 0.74595923239 0.75001206171 0.75459168559 
0.75969807581 0.76533030431 0.77148664371 0.8386064609 0.85026081704 0.86242685512 0.87510319884 0.88828705748 0.90197430932 
0.91615959328 0.93083640629 0.94599720379 0.96163350113 0.97773597408 0.99429455687 1.0112985368 1.0287366449 1.0465971423 
1.0648679027 0.62108724184 0.62164054847 0.62247071671 0.62358697619 0.62499832043 0.62671355078 0.62874130948 0.63109009992 
0.63376829293 0.6367841187 0.64014564484 0.6438607418 0.64793703749 0.65238186353 0.65720219593 0.66240459329 0.61558355041 
0.61658412788 0.6178705884 0.61944660804 0.62131565045 0.62348108091 0.62594626389 0.62871464077 0.63178978574 0.63517543892 
0.63887551698 0.64289410243 0.64723541402 0.65190376102 0.65690348522 0.66223889446 0.61460268944 0.61522255412 0.61604045415 
0.6170664455 0.61831038508 0.6197819508 0.62149065896 0.62344587759 0.62565683404 0.62813261628 0.63088216719 0.63391427191 
0.63723753875 0.64086037421 0.64479095339 0.64903718685 0.63467805782 0.63659661558 0.63875270152 0.64115603459 0.64381650866 
0.64674419764 0.64994934834 0.65344235996 0.65723375011 0.66133410727 0.66575403077 0.67050405939 0.67559459058 0.68103579245 
0.68683751127 0.69300917729 0.47716698614 0.47212152516 0.46714071042 0.46223914524 0.4574315293 0.45273265593 0.44815741297 
0.44372078517 0.43943785611 0.43532380719 0.43139391214 0.42766352506 0.42414806094 0.42086296747 0.41782368804 0.41504561578 