# vtk DataFile Version 5.1
vtk output
ASCII
DATASET POLYDATA
POINTS 252 float
0.705097 -0.238181 0.090057 0.704202 -0.15764 0.134878 0.736116 -0.066592 0.158274 
0.756745 -0.133608 0.127385 0.674046 -0.027515 0.167515 0.689892 -0.258772 0.099544 
0.637535 -0.25747 0.097654 0.664608 -0.013555 0.178798 0.673622 -0.159131 0.119807 
0.629964 0.040564 0.171818 0.625656 -0.191523 0.121151 0.623321 -0.24567 0.083948 
0.587677 0.051852 0.145344 0.577873 -0.057669 0.132607 0.564075 -0.221417 0.059418 
0.605711 -0.163957 0.099161 0.555949 -0.037894 0.107939 0.538432 -0.147732 0.091574 
0.52386 -0.151169 0.056773 0.562684 -0.200053 0.095228 0.563135 -0.240493 0.067601 
0.529347 0.05959 0.123203 0.505462 -0.197353 0.021831 0.490464 -0.206799 0.009423 
0.503034 -0.049203 0.085775 0.486147 -0.197538 0.044235 0.501357 0.077605 0.090696 
0.493188 -0.015827 0.059258 0.467627 0.089058 0.071625 0.425422 -0.092753 -0.042997 
0.42526 -0.111581 -0.012293 0.443833 -0.186523 -0.055473 0.426082 0.107297 0.009976 
0.392506 -0.048254 -0.078651 0.444336 -0.19264 -0.012778 0.422323 0.104561 0.024613 
0.391748 -0.153483 -0.117569 0.37893 -0.1373 -0.077861 0.355971 -0.152256 -0.160538 
0.387571 -0.172592 -0.091914 0.342307 0.088945 -0.094213 0.360127 0.106333 -0.094818 
0.356364 -0.020472 -0.088414 0.344189 -0.100516 -0.154717 0.326333 0.022096 -0.138262 
0.334006 -0.156831 -0.158708 0.325257 -0.130583 -0.139204 0.353767 -0.022627 -0.12637 
0.285155 0.098645 -0.144583 0.318106 0.021986 -0.120169 0.272178 -0.022463 -0.15034 
0.26518 -0.061278 -0.189283 0.283405 -0.123946 -0.200018 0.247673 -0.10545 -0.177455 
0.211255 0.00543 -0.165849 0.213691 -0.129493 -0.208474 0.245757 -0.126836 -0.189388 
0.223528 -0.002164 -0.184915 0.203432 -0.063196 -0.206318 0.213076 0.048121 -0.168597 
0.203511 -0.110125 -0.181484 0.150308 0.079468 -0.142099 0.143271 -0.048727 -0.194619 
0.229154 -0.118534 -0.222897 0.169631 0.033794 -0.146804 0.150449 -0.07679 -0.152421 
0.153837 -0.100205 -0.185141 0.136554 -0.006779 -0.119313 0.129629 0.091175 0.098072 
0.116289 0.021575 -0.037193 0.138766 0.453813 -0.02743 0.124693 -0.068126 -0.165037 
0.113062 0.149497 0.130964 0.120989 0.029304 0.028697 0.082664 0.125445 0.043981 
0.108586 -0.080062 -0.120149 0.125239 0.383757 0.023567 0.12113 0.094616 -0.091873 
0.093542 0.104562 0.023582 0.105109 -0.066218 -0.063895 0.074002 0.475333 -0.067025 
0.097414 0.14965 0.117849 0.11183 0.045317 0.115903 0.102913 0.140291 0.142607 
0.042723 0.148928 -0.068708 0.102662 0.196638 0.173909 0.08134 0.125027 0.130455 
0.024462 0.486598 -0.069173 0.095184 -0.008788 -0.001905 0.098295 0.035526 -0.164678 
0.117161 0.021409 0.096284 0.089453 0.138405 -0.039109 0.078288 -0.163618 -0.079048 
0.101909 0.365341 0.044205 0.069684 0.22119 0.082795 0.081388 0.277732 0.052826 
0.065904 0.169376 -0.009465 0.071647 0.114787 0.078573 0.072838 0.166158 0.062466 
0.083967 -0.107204 -0.146083 0.06991 0.035775 0.103112 0.100666 0.404045 -0.009547 
0.063822 0.200816 0.034024 0.095015 -0.058389 -0.173904 0.079339 0.329695 0.033514 
0.061945 0.009674 0.050942 0.06942 -0.138983 -0.035253 0.006088 0.382842 0.028666 
0.055587 -0.199751 -0.186491 0.036207 -0.121119 -0.196155 0.050775 0.09637 0.075876 
0.039457 -0.236896 -0.088122 0.022064 0.277286 0.023663 0.073024 -0.21719 -0.146851 
0.037738 0.220794 0.01311 0.029486 0.188725 0.100138 0.04522 0.260235 0.083454 
0.056258 -0.26912 -0.198465 0.035502 -0.07676 -0.190764 0.03221 -0.303687 -0.198972 
0.012566 -0.224525 -0.201261 0.041528 -0.156853 -0.035306 0.011782 0.350223 0.014217 
-6e-05 0.074444 -0.145853 0.006041 0.08497 0.085722 0.035961 -0.08241 0.012618 
-0.044688 -0.059516 -0.187682 0.025936 0.115912 -0.111691 0.010415 0.295852 0.075086 
-0.023266 -0.113419 -0.197041 0.006409 0.039215 0.068015 -0.040654 0.216437 0.010312 
0.003832 -0.326485 -0.133103 -0.053229 -0.17525 -0.043126 -0.034012 -0.286288 -0.201381 
-0.048313 -0.136288 -0.022021 -0.027522 -0.317155 -0.175227 -0.027903 -0.227001 -0.080577 
-0.026261 0.131486 -0.092823 0.00449 -0.037091 0.035082 0.008931 0.418515 -0.028163 
-0.041397 0.199827 0.103227 -0.063645 0.14264 -0.059377 -0.064322 0.006528 0.048529 
-0.055707 -0.041268 0.021758 -0.047853 -0.18598 -0.187845 -0.06152 -0.246109 -0.172802 
-0.063223 0.075886 0.098039 -0.050797 -0.246008 -0.119908 -0.068344 0.033146 0.123757 
-0.071864 0.335903 0.056585 -0.076015 -0.179513 -0.128116 -0.094882 0.135999 0.135812 
-0.097809 0.352731 0.015656 -0.050169 0.083386 0.077601 -0.065518 0.287331 0.028529 
-0.067402 0.193831 0.021513 -0.106528 0.392194 -0.006757 -0.096047 -0.059244 -0.173593 
-0.080319 0.118705 0.062118 -0.092276 -0.092478 -0.058363 -0.090125 0.222656 0.080202 
-0.081222 0.149417 0.04783 -0.122502 0.479574 -0.058474 -0.077659 -0.105916 -0.148588 
-0.100786 0.286046 0.043331 -0.01333 0.47307 -0.05349 -0.094079 -0.013986 -0.006623 
-0.115461 -0.060454 -0.108486 -0.100935 0.012617 0.087562 -0.095686 0.476713 -0.070219 
-0.114565 0.03196 -0.022029 -0.097623 0.12587 -0.031103 -0.111053 -0.066145 -0.167118 
-0.102162 0.095942 0.047631 -0.116729 0.354168 0.039052 -0.130103 0.093165 0.109857 
-0.080064 0.024559 -0.167629 -0.118183 0.023429 0.021802 -0.131536 0.065282 -0.095618 
-0.124525 -0.053823 -0.194283 -0.129101 0.053611 0.112427 -0.141829 -0.058814 -0.145958 
-0.104246 0.079964 -0.138753 -0.111061 0.112281 0.140304 -0.156168 0.046956 -0.139079 
-0.159751 -0.108564 -0.216941 -0.187086 -0.128375 -0.212309 -0.15999 0.026854 -0.173601 
-0.172301 0.431499 -0.023855 -0.148295 0.079892 -0.13523 -0.138834 0.419015 0.000747 
-0.1607 -0.107955 -0.170632 -0.220551 0.076487 -0.160853 -0.203217 -0.015229 -0.17446 
-0.202322 -0.115081 -0.191767 -0.246309 -0.118515 -0.218252 -0.200989 -0.048076 -0.206374 
-0.235473 0.080615 -0.166237 -0.309591 0.099608 -0.139415 -0.285373 0.029453 -0.170151 
-0.265735 -0.137951 -0.207296 -0.23445 -0.108577 -0.186482 -0.310561 0.103378 -0.148458 
-0.301694 -0.003622 -0.151832 -0.305934 -0.130689 -0.171362 -0.362666 0.126079 -0.090244 
-0.33262 -0.125612 -0.14306 -0.318947 -0.121927 -0.19551 -0.340863 0.017096 -0.118291 
-0.376606 -0.165726 -0.147254 -0.334253 -0.007045 -0.154956 -0.376909 -0.14188 -0.085647 
-0.360892 -0.071135 -0.099878 -0.366612 0.088892 -0.099007 -0.393077 0.0198 -0.032789 
-0.37284 -0.168762 -0.109759 -0.442056 -0.197262 0.029346 -0.396136 -0.079084 -0.083756 
-0.450025 -0.066315 0.059939 -0.443334 -0.189201 -0.028757 -0.463823 -0.115943 0.037469 
-0.428712 0.074579 0.014377 -0.43894 -0.204717 -0.020394 -0.491847 -0.10173 0.100493 
-0.493935 0.041676 0.112444 -0.487155 -0.205724 0.077609 -0.487359 -0.123933 0.065823 
-0.472925 -0.223234 0.05458 -0.503778 0.02999 0.129241 -0.503216 -0.215687 0.052461 
-0.473365 0.06178 0.100953 -0.563047 -0.225455 0.113611 -0.571257 -0.156149 0.113104 
-0.586752 0.009686 0.17237 -0.591408 0.034194 0.169895 -0.588995 -0.270986 0.102115 
-0.571404 -0.269725 0.087065 -0.654335 -0.014189 0.17783 -0.606234 0.009082 0.17226 
-0.654674 -0.210433 0.112266 -0.598758 -0.259961 0.090134 -0.686 -0.243034 0.119371 
-0.6863 -0.309618 0.095008 -0.712085 -0.295985 0.088855 -0.597033 -0.070802 0.16411 
-0.6446 -0.08676 0.156027 -0.644977 -0.147406 0.149831 -0.707472 -0.091577 0.15651 
-0.742291 -0.168387 0.132119 -0.772816 -0.249168 0.106755 -0.420878 0.066527 0.024233 

POLYGONS 501 1500
OFFSETS vtktypeint64
0 3 6 9 12 15 18 21 24 
27 30 33 36 39 42 45 48 51 
54 57 60 63 66 69 72 75 78 
81 84 87 90 93 96 99 102 105 
108 111 114 117 120 123 126 129 132 
135 138 141 144 147 150 153 156 159 
162 165 168 171 174 177 180 183 186 
189 192 195 198 201 204 207 210 213 
216 219 222 225 228 231 234 237 240 
243 246 249 252 255 258 261 264 267 
270 273 276 279 282 285 288 291 294 
297 300 303 306 309 312 315 318 321 
324 327 330 333 336 339 342 345 348 
351 354 357 360 363 366 369 372 375 
378 381 384 387 390 393 396 399 402 
405 408 411 414 417 420 423 426 429 
432 435 438 441 444 447 450 453 456 
459 462 465 468 471 474 477 480 483 
486 489 492 495 498 501 504 507 510 
513 516 519 522 525 528 531 534 537 
540 543 546 549 552 555 558 561 564 
567 570 573 576 579 582 585 588 591 
594 597 600 603 606 609 612 615 618 
621 624 627 630 633 636 639 642 645 
648 651 654 657 660 663 666 669 672 
675 678 681 684 687 690 693 696 699 
702 705 708 711 714 717 720 723 726 
729 732 735 738 741 744 747 750 753 
756 759 762 765 768 771 774 777 780 
783 786 789 792 795 798 801 804 807 
810 813 816 819 822 825 828 831 834 
837 840 843 846 849 852 855 858 861 
864 867 870 873 876 879 882 885 888 
891 894 897 900 903 906 909 912 915 
918 921 924 927 930 933 936 939 942 
945 948 951 954 957 960 963 966 969 
972 975 978 981 984 987 990 993 996 
999 1002 1005 1008 1011 1014 1017 1020 1023 
1026 1029 1032 1035 1038 1041 1044 1047 1050 
1053 1056 1059 1062 1065 1068 1071 1074 1077 
1080 1083 1086 1089 1092 1095 1098 1101 1104 
1107 1110 1113 1116 1119 1122 1125 1128 1131 
1134 1137 1140 1143 1146 1149 1152 1155 1158 
1161 1164 1167 1170 1173 1176 1179 1182 1185 
1188 1191 1194 1197 1200 1203 1206 1209 1212 
1215 1218 1221 1224 1227 1230 1233 1236 1239 
1242 1245 1248 1251 1254 1257 1260 1263 1266 
1269 1272 1275 1278 1281 1284 1287 1290 1293 
1296 1299 1302 1305 1308 1311 1314 1317 1320 
1323 1326 1329 1332 1335 1338 1341 1344 1347 
1350 1353 1356 1359 1362 1365 1368 1371 1374 
1377 1380 1383 1386 1389 1392 1395 1398 1401 
1404 1407 1410 1413 1416 1419 1422 1425 1428 
1431 1434 1437 1440 1443 1446 1449 1452 1455 
1458 1461 1464 1467 1470 1473 1476 1479 1482 
1485 1488 1491 1494 1497 1500 
CONNECTIVITY vtktypeint64
59 62 89 61 59 89 123 89 177 
190 183 188 194 199 204 203 200 211 
62 103 89 177 158 180 103 66 71 
118 129 126 126 158 177 126 129 158 
118 109 129 186 192 187 187 195 201 
196 201 208 185 179 190 54 61 64 
64 77 67 182 185 194 204 199 209 
44 47 51 48 44 51 46 49 50 
47 43 52 51 47 52 46 50 53 
53 50 54 53 54 60 60 54 64 
60 64 65 65 64 67 66 65 71 
71 65 75 71 75 103 103 75 99 
103 109 118 129 164 158 158 164 173 
158 173 180 173 168 182 173 182 192 
192 182 194 192 194 195 195 194 202 
202 194 204 202 204 205 200 208 211 
205 204 207 207 204 209 43 38 52 
52 38 45 45 46 56 56 46 53 
52 45 56 52 56 55 56 53 60 
55 56 60 60 66 55 66 60 65 
99 108 109 103 99 109 129 145 164 
145 151 164 173 192 186 187 192 195 
201 202 205 205 207 216 201 205 216 
211 208 210 109 108 120 109 120 129 
129 120 145 208 201 210 201 216 210 
113 117 108 108 117 120 120 119 134 
145 120 134 145 134 146 120 117 119 
119 136 134 191 163 189 166 163 191 
80 101 140 70 101 80 195 202 201 
196 187 201 186 187 196 197 186 196 
180 186 197 62 63 66 63 55 66 
58 63 62 63 52 55 200 196 208 
197 196 200 180 173 186 89 118 126 
89 103 118 62 66 103 57 58 62 
51 63 58 51 52 63 197 188 180 
188 177 180 177 89 126 59 57 62 
57 51 58 198 197 200 188 197 198 
194 185 193 177 188 183 123 177 183 
57 59 48 48 51 57 198 200 203 
49 48 54 189 170 157 166 70 87 
70 80 87 233 230 241 230 237 241 
237 228 236 228 226 232 230 228 237 
20 19 25 11 20 14 20 6 19 
11 6 20 6 10 19 233 241 240 
6 5 10 228 232 236 240 241 244 
240 244 250 194 193 199 1 7 10 
10 7 13 232 245 247 5 1 10 
232 247 242 249 240 250 249 250 242 
236 232 242 243 236 242 134 136 146 
241 236 243 244 243 242 19 17 25 
15 14 18 15 11 14 0 11 15 
15 8 0 220 223 230 232 224 245 
226 224 232 17 13 24 19 10 17 
10 13 17 4 8 15 2 1 3 
225 227 233 223 228 230 230 233 227 
16 4 15 245 224 234 225 233 239 
229 234 224 80 140 170 224 219 229 
4 16 12 234 229 235 235 225 239 
229 225 235 181 184 176 181 149 184 
149 152 184 100 82 86 82 83 86 
149 147 152 42 40 49 41 33 47 
222 214 218 179 142 190 171 172 179 
206 214 222 215 209 206 179 172 142 
84 127 138 91 84 96 91 77 84 
41 32 33 131 138 142 131 84 138 
114 84 131 96 84 114 153 175 189 
157 153 189 157 122 153 167 178 171 
135 167 160 26 27 32 78 73 69 
174 171 178 176 174 178 176 178 181 
24 28 35 88 90 105 105 130 139 
130 143 139 139 143 144 144 143 167 
167 143 169 167 169 178 219 215 251 
25 24 35 25 35 30 79 88 106 
125 88 105 88 125 106 125 105 139 
125 139 135 139 144 135 121 106 125 
121 125 135 135 144 167 219 217 212 
22 23 31 22 31 29 34 25 30 
121 133 111 133 121 135 216 212 217 
23 34 31 216 217 223 72 81 85 
81 86 85 101 104 122 101 122 140 
93 70 107 76 104 101 93 76 70 
34 30 37 31 36 29 92 79 106 
37 30 42 212 215 219 212 213 215 
167 171 168 160 167 168 79 69 88 
69 73 88 30 35 42 27 29 33 
222 218 221 215 206 251 174 162 171 
69 77 78 32 27 33 206 222 251 
162 172 171 162 156 172 78 91 96 
78 77 91 131 142 156 102 96 114 
142 172 156 35 40 42 54 48 61 
0 5 11 2 4 7 5 6 11 
0 1 5 199 203 206 107 70 166 
140 122 157 107 166 191 140 157 170 
40 48 49 77 64 61 77 61 84 
61 89 127 84 61 127 89 123 127 
127 123 138 138 123 183 142 138 183 
190 142 183 203 211 214 41 47 44 
41 44 48 50 49 54 7 4 9 
72 85 83 222 221 225 169 149 181 
147 149 143 143 154 147 130 154 143 
130 124 154 110 124 130 105 110 130 
105 100 110 90 100 105 90 82 100 
90 73 68 90 68 82 21 28 24 
133 135 160 26 16 27 231 222 225 
3 0 8 147 154 152 124 141 154 
124 115 141 124 110 115 100 97 110 
100 86 97 68 72 83 68 74 72 
68 83 82 21 16 26 152 174 176 
86 81 97 154 141 159 152 159 174 
159 162 174 154 159 152 74 78 96 
68 73 78 74 68 78 13 21 24 
159 161 162 141 161 159 110 94 115 
98 94 110 98 96 102 72 74 81 
141 116 128 115 116 141 115 94 116 
95 98 102 94 98 95 165 161 175 
161 150 175 161 141 150 141 128 150 
94 95 116 132 137 148 132 111 137 
216 223 210 148 133 151 137 133 148 
137 111 133 106 121 111 92 106 111 
36 39 38 36 31 39 39 31 34 
220 221 218 210 223 220 210 220 218 
151 133 160 39 34 37 98 74 96 
95 93 116 92 111 113 97 74 110 
74 98 110 246 233 240 239 233 246 
182 179 185 47 33 43 65 67 75 
173 164 168 99 113 108 145 146 151 
107 191 150 175 191 189 67 77 69 
213 209 215 75 67 79 67 69 79 
168 179 182 168 171 179 214 211 218 
33 36 43 37 42 46 46 42 49 
75 79 92 207 209 213 33 29 36 
36 38 43 39 37 46 45 39 46 
99 75 92 113 99 92 164 151 168 
151 160 168 207 213 212 207 212 216 
211 210 218 45 38 39 146 148 151 
117 113 119 113 111 132 119 113 132 
132 148 136 136 148 146 76 93 104 
93 95 104 116 93 128 128 93 150 
93 107 150 153 155 165 150 191 175 
175 153 165 104 112 122 153 122 112 
153 112 155 155 156 165 95 102 114 
95 114 112 104 95 112 112 114 131 
155 112 131 155 131 156 165 156 162 
165 162 161 2 7 1 81 74 97 
9 12 21 4 12 9 217 228 223 
23 25 34 23 20 25 22 14 23 
14 20 23 227 220 230 226 217 224 
228 217 226 217 219 224 18 14 22 
17 24 25 16 15 18 18 29 27 
16 18 27 241 243 244 225 221 227 
143 149 169 73 90 88 241 237 236 
219 231 229 178 169 181 86 83 85 
184 152 176 221 220 227 29 18 22 
248 246 249 163 170 189 193 188 198 
190 188 193 12 16 21 238 245 234 
234 239 238 206 203 214 7 9 13 
13 9 21 28 26 35 35 26 32 
21 26 28 48 59 61 235 239 234 
231 225 229 242 247 249 166 87 163 
76 101 70 185 190 193 35 41 40 
35 32 41 48 40 41 246 240 249 
4 3 8 1 0 3 2 3 4 
231 251 222 251 231 219 87 170 163 
199 198 203 249 247 248 193 198 199 
199 206 209 119 132 136 239 246 238 
238 248 245 248 247 245 244 242 250 
238 246 248 87 80 170 
POINT_DATA 252
SCALARS k float
LOOKUP_TABLE default
0.664248 -0.019364 1.21844 1.40267 -0.326875 1.60677 0.412726 -0.00834537 0.0145738 
1.48309 0.0256334 -0.209561 0.254785 0.00909859 -0.144105 -0.027838 -0.0291399 -0.00429296 
0.0271399 0.0771902 0.135532 -0.529982 -0.098963 -0.391528 0.00467151 0.17965 0.15346 
-0.00106442 0.229808 0.00942761 -0.000261188 0.151742 0.147873 -0.00935686 0.0856577 0.439147 
-0.139126 -0.0229635 0.54558 -0.150526 -0.223102 0.322816 -0.00771379 -0.0148725 0.00793457 
0.0349786 -0.168739 -0.0183953 -0.122419 -0.0625731 0.00246835 -0.0289062 -0.0710834 -0.136243 
-0.042002 0.65554 -0.461318 -0.00325823 -0.00141454 0.0197517 -0.178747 -1.64867 0.0225826 
0.796564 -0.158911 -0.845228 0.148929 -0.167488 0.258308 -0.222158 2.2657 0.0235738 
-0.149089 -0.040977 -1.99995 -1.06211 0.745527 -0.312311 -0.142883 0.006778 0.799117 
-0.533881 0.37595 -0.275743 -0.141869 5.11 -0.140907 0.439314 -0.47162 -0.0915691 
0.893191 -0.00282288 -0.0276316 -0.159327 0.265556 -0.464454 -0.207824 -0.451227 -0.188002 
-0.216863 0.502819 -0.0141445 -0.285645 -1.55091 -0.399079 -0.978968 0.131107 -0.00395918 
-0.103434 -0.0961925 -1.48623 -0.000831246 -0.196765 0.0502882 -0.472723 0.122104 -0.0443089 
0.732196 0.00832444 0.930957 -0.0308602 0.00655842 -0.0823969 0.0161057 0.0787728 0.0150754 
0.0160377 0.00705898 0.0116601 -0.112117 -0.00456858 -0.432708 1.45546 0.284516 0.660814 
-0.0271307 0.846094 -0.0972111 -0.0119263 0.00677603 -0.0083698 0.212216 -0.266116 -1.01758 
-0.0678767 -0.027885 0.245668 -0.127799 0.0231769 1.40399 0.0378801 -0.112292 2.40517 
-0.321078 -1.35352 -0.154813 -0.464493 -0.00912821 -0.764412 -2.2356 0.012978 0.176705 
-0.321016 1.1888 -0.347232 -0.187705 -0.00522184 -0.428765 -0.524993 0.32062 0.496009 
-0.218936 -0.0806053 -1.55826 -0.309722 -0.40942 0.462195 -0.122407 0.00350547 -0.281364 
-0.224867 0.674343 -0.874423 -0.0133771 0.7954 -0.145275 0.756844 0.493185 -0.0507396 
2.27061 -1.15244 0.112822 0.567086 -1.18499 -0.00688559 -0.311335 0.198358 0.0256984 
0.283203 -0.521129 -0.0165994 -0.185901 -0.151812 0.405465 -0.0382155 -0.162178 1.20116 
-0.0273158 0.205613 -0.0203341 0.526855 -0.0223647 -0.0365009 -0.000332594 0.0334234 -0.00617075 
-0.27017 0.110861 -0.00956666 0.00807512 -0.0962331 0.0220685 -0.355286 -0.00982124 0.00924265 
-0.94255 0.0910939 0.0119048 -0.0337996 -0.110822 -0.643311 1.05044 0.0583842 0.0114424 
0.10605 1.88405 -0.265437 0.599459 1.1392 -1.1152 -0.00747275 -0.497465 -0.00883675 
1.59308 0.521645 0.04028 0.0167797 0.0244746 0.347061 0.122991 2.43872 -0.0806016 

FIELD FieldData 7
h 1 252 float
-1.52604 3.68733 4.93809 -1.6347 -0.779029 4.11896 1.71918 1.94459 -2.10892 
1.57899 2.05026 -1.24744 -0.628443 1.4059 -0.429416 -1.2402 -0.900468 1.70857 
-1.47509 1.54773 0.946648 0.574127 0.0744053 10.0147 1.37738 0.977393 1.29744 
-0.0944616 0.209742 0.218318 0.522355 0.417366 1.29316 1.54471 0.703772 0.158976 
1.56142 0.123868 1.82662 1.12573 -1.74099 2.37873 -1.08489 2.05522 2.74107 
-0.729622 -0.191738 2.91893 2.76121 -1.73824 -3.16081 2.60642 3.46044 -3.32706 
-3.39039 -1.20506 -3.11917 2.63075 2.69809 2.21005 -3.83072 1.86285 1.99585 
2.95508 -2.66293 -2.9158 1.63717 -1.66199 0.564922 -0.156349 0.649589 0.0320678 
-0.127377 2.7006 2.57738 -1.33199 -0.414602 -1.23941 3.53843 0.228175 -1.03879 
-0.376026 5.5493 5.11606 0.466835 0.749487 -0.00320762 -1.55768 1.35942 1.58439 
5.85546 1.77047 0.667585 3.34337 3.30281 3.77126 2.7879 0.8914 0.888423 
4.98175 0.396298 -0.649314 2.12906 1.18324 -1.46183 4.08951 2.10817 3.81635 
2.9689 1.19913 4.63307 1.77633 -2.52167 -1.88232 -1.34789 5.01009 4.51835 
5.05364 1.10506 6.11936 0.629282 5.61652 -2.74759 0.971288 5.49513 5.26493 
1.13219 1.06651 3.96013 1.13729 6.07368 -1.16469 1.67652 2.7602 0.965145 
3.14751 2.66632 4.35328 0.403578 5.73472 -3.03169 5.02261 0.647938 3.22927 
2.18768 1.69775 7.58742 1.04086 -0.14605 0.313762 4.27577 -0.752955 1.2304 
-0.672789 3.818 -1.73378 1.69092 0.346721 1.01573 3.0457 1.07443 3.57542 
1.58033 -1.00525 3.22193 3.24275 0.110156 1.28398 -0.591015 3.06474 0.111618 
0.466069 3.39933 1.85735 2.08957 2.83818 -1.86518 1.2986 0.577575 -1.34248 
1.90625 4.81256 -2.25839 1.02539 7.56217 -3.53566 2.91168 0.0618109 1.78288 
0.847426 1.53284 1.07459 -3.77434 -2.7122 -4.5851 -3.76981 3.37183 2.53453 
2.97361 -0.377492 3.60757 -1.1788 -2.87034 3.39218 -3.31085 0.60872 0.858912 
-0.0893697 2.03802 -1.61955 0.102178 3.09774 -0.0439971 -1.05615 0.582367 0.218847 
1.37976 1.22842 0.688287 1.53418 -0.746932 -1.71053 0.0279023 8.02554 2.07166 
0.0326579 1.33777 -1.69792 2.36802 0.201955 -0.11222 0.0207896 0.919583 -1.85493 
0.252023 2.92713 0.389605 6.84416 4.93079 -1.03661 -1.89671 -0.750892 2.81702 
2.22648 -1.92345 0.823549 -2.13231 2.64771 3.33251 -0.49337 -1.13922 0.324573 

kmin 1 252 float
-0.472806 6.25356 9.22608 -0.447824 -0.0272849 6.98836 2.70077 3.04769 -0.433794 
2.46986 2.92577 0.0135064 0.112125 1.64609 0.618709 -0.847197 -0.424857 2.04602 
-0.713119 1.74735 1.17123 1.1156 0.813852 20.169 1.94738 1.12936 2.21043 
0.57282 0.508875 1.08003 0.779228 0.796371 1.77683 2.25288 0.930195 0.241272 
2.43457 0.650965 1.91336 2.70006 -1.31276 3.24687 -0.415407 2.67882 3.59325 
0.872307 0.723333 4.47632 3.50488 -1.23018 -3.03494 3.22241 4.79726 -2.71589 
-2.77041 0.721637 -0.631918 3.32742 3.50549 2.84315 -0.323499 2.52443 2.93685 
3.91514 -0.895148 -0.397471 2.71252 -0.0157826 0.950983 1.20873 2.1237 1.86225 
2.40511 4.23223 6.75149 1.55052 1.05387 -0.0454916 6.53059 1.0243 2.18347 
2.06662 8.46605 9.82583 1.47878 1.42467 1.81971 -0.465208 1.68419 2.34244 
10.8312 5.1893 1.15173 5.16441 4.21293 8.03258 7.61078 3.17801 1.85141 
8.764 2.2193 4.77963 5.61604 2.25625 -0.25076 6.23185 2.80252 7.43171 
3.8404 2.54487 7.07255 3.93924 -1.99922 -0.0250165 -0.663212 7.44214 6.37752 
8.80463 2.17364 12.8019 2.35894 10.6681 -0.0940068 1.64905 8.59939 9.34035 
2.08637 2.03912 5.6775 2.32465 10.35 -0.673782 3.41494 4.36101 2.48659 
5.09069 5.42136 9.56459 0.755106 10.0787 3.06144 7.3213 2.26352 4.51575 
2.66814 2.44908 13.7106 1.5838 0.406292 3.78777 7.0577 1.08011 3.41391 
1.38543 5.70272 -0.889819 4.50938 5.30352 1.96773 4.33722 1.4207 4.67311 
3.37848 -0.498688 4.7869 6.22116 0.874835 1.59884 0.886481 4.57725 3.56063 
1.68733 7.0376 4.72995 3.64655 3.87299 0.074483 1.86158 1.4279 0.107637 
2.82492 7.02469 -0.307881 1.62278 11.5429 -0.04745 4.67761 1.86874 2.28919 
5.26601 2.5173 2.24859 -0.649848 -1.9813 -1.02046 0.600304 4.39021 3.22258 
4.15714 2.24426 5.11735 0.144693 -1.03532 4.6546 -2.6723 2.02838 1.68136 
0.627957 2.58567 -0.514555 1.20266 4.48823 0.433649 -0.0971224 1.42881 0.8148 
3.11226 1.69332 1.00242 2.21322 -0.0965721 -0.419131 0.561469 15.4833 3.24466 
0.629294 1.84659 -0.936563 3.51771 1.19966 1.1898 0.790171 1.74458 -1.75325 
1.54128 3.67342 1.53836 16.1963 8.80732 -0.209056 0.308686 0.921252 5.52725 
4.74806 -0.334164 1.82394 -0.367587 5.29811 6.82295 0.391373 -0.191139 0.925217 

kmax 1 252 float
-2.57927 1.1211 0.650106 -2.82157 -1.53077 1.24956 0.737585 0.841489 -3.78404 
0.688128 1.17474 -2.50838 -1.36901 1.16571 -1.47754 -1.6332 -1.37608 1.37112 
-2.23706 1.34812 0.722068 0.032654 -0.665042 -0.139557 0.807375 0.825426 0.384453 
-0.761743 -0.0893918 -0.643396 0.265482 0.0383616 0.809487 0.836545 0.477349 0.0766796 
0.688273 -0.40323 1.73989 -0.448602 -2.16922 1.51059 -1.75438 1.43161 1.88889 
-2.33155 -1.10681 1.36154 2.01755 -2.2463 -3.28668 1.99042 2.12363 -3.93823 
-4.01036 -3.13175 -5.60643 1.93409 1.89068 1.57696 -7.33793 1.20127 1.05485 
1.99502 -4.43072 -5.43414 0.561826 -3.3082 0.178861 -1.52143 -0.824525 -1.79811 
-2.65986 1.16896 -1.59673 -4.21449 -1.88308 -2.43332 0.546262 -0.567951 -4.26105 
-2.81867 2.63255 0.406284 -0.545106 0.0743008 -1.82612 -2.65016 1.03465 0.826335 
0.879744 -1.64835 0.183441 1.52233 2.39269 -0.490062 -2.03498 -1.39521 -0.0745689 
1.1995 -1.42671 -6.07826 -1.35792 0.110232 -2.67291 1.94718 1.41383 0.200978 
2.0974 -0.14662 2.19358 -0.386566 -3.04412 -3.73962 -2.03256 2.57803 2.65919 
1.30265 0.036476 -0.563129 -1.10038 0.564936 -5.40117 0.293527 2.39086 1.1895 
0.178016 0.0938979 2.24276 -0.0500586 1.79741 -1.6556 -0.0618877 1.15938 -0.556303 
1.20433 -0.0887222 -0.858025 0.0520505 1.39075 -9.12481 2.72392 -0.967645 1.94279 
1.70723 0.946425 1.46421 0.497919 -0.698391 -3.16025 1.49384 -2.58602 -0.953119 
-2.73101 1.93328 -2.57774 -1.12754 -4.61008 0.0637223 1.75417 0.728155 2.47774 
-0.217816 -1.51182 1.65697 0.264344 -0.654523 0.969113 -2.06851 1.55223 -3.3374 
-0.75519 -0.238944 -1.01524 0.532587 1.80338 -3.80483 0.735614 -0.272755 -2.79259 
0.98758 2.60044 -4.20889 0.427997 3.58148 -7.02387 1.14576 -1.74512 1.27657 
-3.57116 0.54839 -0.0994005 -6.89884 -3.44309 -8.14975 -8.13992 2.35345 1.84649 
1.79009 -2.99924 2.0978 -2.50228 -4.70537 2.12976 -3.94939 -0.81094 0.0364687 
-0.806696 1.49037 -2.72455 -0.998306 1.70725 -0.521643 -2.01518 -0.264075 -0.377107 
-0.352744 0.763529 0.374155 0.855131 -1.39729 -3.00194 -0.505664 0.567742 0.898663 
-0.563978 0.828955 -2.45927 1.21834 -0.79575 -1.41424 -0.748592 0.0945896 -1.95662 
-1.03724 2.18084 -0.759149 -2.508 1.05427 -1.86416 -4.10211 -2.42304 0.106795 
-0.295101 -3.51273 -0.176844 -3.89703 -0.00268865 -0.157944 -1.37811 -2.08729 -0.276071 

hks 16 252 double
0.97769292199 0.99108598332 1.0044110976 1.0176538209 1.030801062 1.0438410277 1.0567631434 1.0695579536 1.0822170096 
1.0947327496 1.107098377 1.1193077425 1.1313552339 1.143235678 1.1549442583 1.1664764488 1.0699820861 1.0829233299 
1.0960228704 1.1092409169 1.1225362272 1.1358666454 1.1491896509 1.1624629072 1.1756447984 1.1886949437 1.201574682 
1.2142475188 1.2266795299 1.2388397184 1.2507003191 1.2622370512 1.0689889007 1.0836160357 1.0982870087 1.1129659948 
1.1276157804 1.1421981719 1.1566744503 1.1710058624 1.1851541347 1.1990819975 1.2127537024 1.2261355219 1.2391962152 
1.2519074486 1.264244161 1.2761848663 1.1902912966 1.201265697 1.2120997211 1.2227720207 1.2332633332 1.2435565375 
1.2536366711 1.2634909122 1.273108533 1.2824808274 1.2916010207 1.3004641613 1.309067002 1.3174078723 1.3254865456 
1.3333041066 0.89298465026 0.90711613602 0.92145913154 0.93598249464 0.95065524533 0.96544665431 0.98032629445 0.99526406618 
1.0102302089 1.025195311 1.0401303305 1.0550066361 1.0697960778 1.0844710905 1.0990048349 1.1133713729 0.84622634973 
0.85908159873 0.87218160624 0.88551246246 0.8990585301 0.91280239323 0.9267248364 0.94080486039 0.95501973996 0.96934512787 
0.98375520786 0.99822289718 1.0127200974 1.0272179897 1.0416873685 1.0560990055 0.72331888264 0.73130080174 0.73970125073 
0.7485391328 0.75783032995 0.76758715348 0.77781785579 0.78852622155 0.79971125386 0.81136696821 0.8234823032 0.83604115326 
0.84902252387 0.86240080557 0.87614615856 0.89022499559 0.94813947182 0.96138838079 0.97510796455 0.98924564736 1.0037463741 
1.0185530242 1.0336068543 1.0488479794 1.0642158963 1.0796500539 1.0950904663 1.1104783638 1.125756867 1.1408716691 
1.1557717054 1.1704097875 1.2205284153 1.2227534621 1.2253764191 1.2283697646 1.2317056939 1.2353566884 1.2392960071 
1.2434980877 1.2479388478 1.2525958851 1.2574485762 1.262478082 1.267667268 1.2730005531 1.2784637046 1.2840435945 
0.79832755331 0.80852154892 0.81912533313 0.83014392443 0.84157892081 0.85342809207 0.86568504075 0.87833895051 0.89137443796 
0.90477152123 0.91850571315 0.93254824234 0.94686639945 0.96142399992 0.97618194926 0.99109889192 0.91659611059 0.92351566125 
0.93080717196 0.93848061164 0.94654275624 0.95499682344 0.96384217065 0.9730740707 0.98268357805 0.99265749548 1.0029784479 
1.0136250661 1.0245722774 1.0357916983 1.0472521158 1.0589200433 0.67457152644 0.68555271623 0.69691096805 0.70864605054 
0.72075610532 0.73323739336 0.74608405236 0.75928787815 0.77283814264 0.78672146021 0.80092171221 0.81542003711 0.83019489058 
0.84522217646 0.86047544642 0.87592616259 0.77801937233 0.78252397488 0.78764704322 0.79341336561 0.79984358049 0.80695352612 
0.81475364512 0.82324846805 0.83243619941 0.84230842684 0.85284997115 0.86403889001 0.87584664254 0.88823841565 0.90117360654 
0.91460644912 0.9220870451 0.9242702494 0.92686395725 0.92988055174 0.9333309119 0.93722452494 0.94156956252 0.94637290596 
0.95164011006 0.95737530085 0.96358100926 0.97025794869 0.97740475041 0.98501767526 0.99309032342 1.0016133655 0.56417585859 
0.56922958678 0.57461232121 0.58035740427 0.58649816065 0.59306720273 0.60009571539 0.60761274153 0.61564448918 0.62421368119 
0.63333896666 0.64303441134 0.65330908142 0.66416673186 0.67560560662 0.6876183544 0.80685292705 0.81325729522 0.82016250205 
0.82756133301 0.8354444409 0.84380053492 0.85261655926 0.86187785606 0.87156831005 0.88167047391 0.8921656752 0.90303410692 
0.91425490455 0.9258062131 0.93766524765 0.94980835119 0.69989472864 0.70099294219 0.70268086984 0.704983561 0.70792374482 
0.71152157369 0.7157943503 0.72075624235 0.72641799204 0.73278662998 0.73986520565 0.74765254755 0.75614306693 0.76532661813 
0.77518842726 0.78570909832 0.80856783765 0.81076894466 0.81314414344 0.81569860858 0.81844547242 0.82140516195 0.82460448072 
0.82807548013 0.83185416999 0.83597912174 0.84049001817 0.84542620201 0.8508252724 0.85672177345 0.86314601298 0.87012304286 
0.772636683 0.76873814068 0.76510002977 0.76174837943 0.75871164229 0.75602079028 0.75370927586 0.75181284784 0.75036921873 
0.74941758889 0.74899804035 0.74915081989 0.74991553632 0.75133030028 0.75343083723 0.75624960374 0.71517330286 0.71841917486 
0.72198271098 0.72591106268 0.73024939323 0.73504010299 0.74032209408 0.74613008908 0.75249401702 0.75943847956 0.76698230897 
0.77513822827 0.78391262236 0.7933054265 0.8033101362 0.81391393917 0.55260495025 0.55850101042 0.56480684111 0.57155500612 
0.57877667756 0.58650094428 0.59475412362 0.60355909693 0.61293468958 0.62289511583 0.63344950741 0.64460154265 0.65634918978 
0.66868457437 0.68159397625 0.69505795687 0.68119106976 0.6848556441 0.68882215697 0.6931202631 0.6977823865 0.7028429673 
0.70833756505 0.71430185075 0.72077052569 0.72777620966 0.7353483426 0.74351214367 0.75228766849 0.76168900109 0.77172361008 
0.78239189113 0.64692560404 0.64434444002 0.64186766805 0.6395414497 0.63741594869 0.63554450993 0.63398275018 0.63278758311 
0.63201620149 0.63172503851 0.63196872961 0.63279909547 0.63426416606 0.63640726522 0.63926617457 0.64287239493 0.47259221567 
0.47610752679 0.47985413424 0.48386402016 0.48817109034 0.49281056839 0.49781830753 0.50323003709 0.50908056431 0.51540295432 
0.52222771316 0.52958199931 0.53748888965 0.54596672405 0.55502855098 0.56468169282 0.8169430022 0.81133111214 0.80596885425 
0.80090179435 0.79617615959 0.79183886688 0.78793750849 0.78452026667 0.78163573159 0.77933260186 0.7776592534 0.77666317098 
0.77639024621 0.77688395535 0.77818444033 0.78032752475 0.61062985652 0.60994978849 0.60959834369 0.60959465417 0.60995906624 
0.61071325505 0.61188024995 0.61348435621 0.61555096375 0.61810623982 0.62117670908 0.6247887314 0.62896789362 0.63373833728 