# vtk DataFile Version 5.1
vtk output
ASCII
DATASET POLYDATA
POINTS 252 float
0.572449 -0.208519 0.057638 0.579992 -0.134605 0.058259 0.582633 -0.200919 0.04974 
0.584039 -0.216912 0.162137 0.560003 -0.210373 0.015062 0.582326 -0.055513 0.072533 
0.57828 0.039429 -0.009123 0.5776 0.035936 0.04131 0.567015 0.054946 -0.055087 
0.567319 -0.008718 -0.037036 0.576231 -0.199148 0.20702 0.541013 0.058439 -0.102527 
0.560107 -0.186503 0.21308 0.565673 -0.015661 0.028994 0.559853 -0.148115 0.058407 
0.572239 -0.08264 0.102971 0.584565 0.044426 0.087126 0.549661 -0.006238 -0.056509 
0.530021 -0.199816 -0.058263 0.537889 -0.177187 0.001171 0.566703 0.006078 0.138983 
0.533089 0.036301 -0.107171 0.547358 -0.138945 -0.038511 0.577612 0.021305 0.088576 
0.575222 -0.1264 0.155304 0.510358 -0.141898 -0.052813 0.507904 -0.191424 -0.044285 
0.548316 -0.094816 0.20871 0.566749 -0.173271 0.182848 0.515197 -0.063281 -0.094669 
0.510276 -0.140692 -0.078864 0.510272 -0.208033 -0.048252 0.468131 -0.041219 -0.115381 
0.530433 0.053562 -0.101212 0.442603 0.048102 -0.169815 0.433617 -0.186988 -0.094311 
0.437344 -0.21473 -0.116578 0.464668 -0.208802 -0.102779 0.437755 -0.086076 -0.142783 
0.420914 -0.003055 -0.171885 0.404527 -0.035494 -0.148404 0.396634 -0.198521 -0.134581 
0.43582 0.042387 -0.165706 0.395185 -0.19613 -0.110205 0.3628 -0.213679 -0.125708 
0.390299 -0.087125 -0.154836 0.33841 0.044186 -0.188082 0.312625 -0.206965 -0.107241 
0.345288 -0.110626 -0.125256 0.30137 -0.19929 -0.12442 0.307824 -0.181354 -0.101956 
0.304998 0.007555 -0.174493 0.306761 0.012991 -0.16387 0.34431 -0.144525 -0.139146 
0.254732 -0.150853 -0.125342 0.25897 -0.075037 -0.1439 0.244737 -0.035071 -0.134451 
0.274254 0.014741 -0.171773 0.230897 -0.166841 -0.088402 0.191023 -0.172892 -0.105266 
0.172855 -0.049117 -0.116618 0.169201 -0.173246 -0.089989 0.164852 -0.001391 -0.116724 
0.185624 -0.042356 -0.108418 0.158455 -0.095791 -0.068555 0.127254 -0.121801 -0.092779 
0.168101 0.355203 0.012061 0.177894 -0.160343 -0.071682 0.147918 0.327831 0.028734 
0.172639 0.076576 0.158999 0.163304 0.011871 0.155051 0.183127 0.058881 0.119665 
0.169782 0.036254 0.110797 0.162 -0.019013 0.158081 0.158966 0.061303 0.072336 
0.144524 0.027561 -0.085453 0.161533 0.386097 0.019713 0.133435 -0.09162 -0.04239 
0.188096 -0.050601 0.188526 0.132873 0.048815 -0.048968 0.147344 -0.051221 0.208944 
0.163503 0.11014 0.080726 0.131808 0.054582 0.018817 0.116201 0.053206 -0.092432 
0.125898 0.00452 0.028919 0.14621 -0.027201 0.205149 0.147473 0.004424 0.16229 
0.112392 0.130495 0.050585 0.132979 0.115407 0.124362 0.128848 -0.056376 0.169457 
0.13175 -0.054837 -0.025882 0.097071 -0.142663 0.035787 0.136554 0.062244 0.162333 
0.130917 0.256544 0.018965 0.099054 0.114052 -0.05091 0.100266 -0.123953 -0.014877 
0.122684 0.105117 0.02196 0.114131 0.069252 0.122144 0.104718 -0.102087 -0.080044 
0.127951 0.36999 0.004691 0.166085 0.467561 -0.006437 0.091502 0.085296 0.079023 
0.113444 0.165453 0.028451 0.085268 -0.142637 0.070984 0.104291 0.280536 0.002009 
0.104893 -0.069774 0.054076 0.093956 0.015237 0.074001 0.101446 0.474655 0.00069 
0.117613 0.279069 0.038629 0.123363 0.050542 0.087825 0.079549 -0.210119 0.017394 
0.060645 -0.130527 -0.068787 0.061262 -0.270361 -0.004555 0.081468 0.177368 -0.030617 
0.057315 -0.226158 -0.018376 0.079458 0.021373 -0.101775 0.073289 0.226071 -0.015385 
0.04677 -0.289575 0.053791 0.048929 -0.008131 0.091392 0.048127 0.404051 0.028198 
0.054849 -0.143439 0.085534 0.028131 -0.281063 0.077738 0.007196 0.072398 -0.082069 
0.045724 0.116671 -0.065822 0.014083 -0.318303 0.026149 0.076922 -0.107891 0.080658 
0.06916 0.186347 0.064955 0.007215 -0.214195 -0.030525 0.020218 -0.264785 -0.015018 
0.001356 -0.062179 0.096947 0.046245 0.369042 0.009745 0.029268 0.131468 0.084191 
0.000331 0.097664 0.089813 -0.011331 -0.304597 0.055503 0.016842 0.223986 0.061873 
0.109759 0.49493 -0.000288 -0.005086 0.153283 -0.039343 0.033305 0.302169 0.047094 
0.08486 -0.041645 -0.099438 -0.034559 -0.208512 -0.011 -0.004754 -0.204228 0.080579 
-0.01847 -0.119901 -0.065519 -0.014498 0.019792 0.089856 -0.02775 -0.210921 0.063851 
-0.01114 -0.122977 0.092126 -0.017376 0.226604 0.003446 -0.021265 0.070889 0.108762 
0.01276 0.29197 0.009518 -0.045487 -0.254686 0.011376 -0.056415 -0.121404 0.036384 
-0.015855 0.197696 0.06011 -0.039582 -0.12848 0.072363 -0.055354 0.001645 -0.087568 
-0.034179 0.280324 0.028783 -0.031069 0.149011 0.038848 -0.029122 0.154772 0.001297 
-0.020655 0.118048 0.123212 -0.044067 -0.132084 -0.039029 -0.036271 0.267827 0.048521 
-0.025558 0.135031 0.067155 -0.04757 -0.002384 0.19137 -0.081773 -0.072626 -0.072346 
-0.041304 -0.051234 0.074303 -0.03042 0.367508 0.025123 -0.051374 0.020787 0.066746 
-0.074848 -0.044099 0.191876 -0.085825 -0.092866 -0.037617 -0.048756 0.134978 0.080034 
-0.065644 0.062595 0.040538 -0.035008 0.319545 0.051972 -0.075366 -0.088813 -0.005106 
-0.040137 0.114906 0.166602 -0.059468 0.075118 0.197207 -0.026298 0.042067 0.173125 
-0.06942 0.066981 -0.067234 -0.081347 -0.041544 0.006558 -0.051759 0.489458 0.026606 
-0.055919 0.041482 0.179526 -0.027445 0.494816 0.014294 -0.068177 -0.005875 0.214351 
-0.039866 -0.036927 0.225308 -0.066933 0.00638 0.183174 -0.059652 0.133579 0.138794 
-0.075295 0.093084 0.086906 -0.081089 0.100022 0.150227 -0.047905 0.3724 0.047051 
-0.062242 0.061988 0.105678 -0.089125 0.069154 0.143682 -0.092344 0.039191 -0.034869 
-0.122103 -0.13457 -0.056573 -0.042746 0.457406 0.032232 -0.113507 -0.065924 -0.02946 
-0.12138 -0.119436 -0.025548 -0.132305 0.004906 -0.08227 -0.126849 0.034599 -0.080364 
-0.063597 0.362622 0.04153 -0.216167 0.037169 -0.092731 -0.154066 -0.100424 -0.040154 
-0.211549 0.020686 -0.095386 -0.19082 -0.065698 -0.075697 -0.159765 -0.145208 -0.063649 
-0.203509 -0.124042 -0.034568 -0.24485 -0.061389 -0.047342 -0.166553 -0.024536 -0.067998 
-0.189354 -0.152096 -0.034146 -0.281094 -0.097589 -0.054303 -0.282139 -0.163444 -0.04321 
-0.320778 0.071281 -0.093054 -0.295953 -0.153578 -0.016766 -0.340437 -0.129367 -0.044794 
-0.309447 0.073476 -0.088477 -0.357281 -0.159657 -0.01661 -0.339363 -0.115589 -0.020735 
-0.338811 0.027587 -0.063904 -0.429703 -0.15713 -0.027069 -0.317363 -0.169627 -0.0338 
-0.424827 0.10471 -0.069657 -0.414233 0.083348 -0.077456 -0.434567 -0.135647 -0.000588 
-0.439006 -0.05633 -0.022044 -0.405137 0.102913 -0.078852 -0.447634 -0.163038 -0.006635 
-0.473257 0.096233 -0.071292 -0.543943 -0.105298 -0.011092 -0.465012 -0.066085 -0.034724 
-0.50986 -0.149031 0.013376 -0.536694 -0.074292 0.000726 -0.555705 -0.035196 -0.02423 
-0.565597 0.068756 -0.037109 -0.592269 -0.173864 0.022446 -0.639631 0.008801 0.005138 
-0.557372 0.083244 -0.051839 -0.590064 -0.137171 0.028452 -0.596852 -0.169476 0.011231 
-0.633631 -0.113783 0.010976 -0.678335 -0.179116 0.029985 -0.740015 0.045331 0.014105 
-0.6395 0.075147 -0.017485 -0.672381 -0.158023 0.043555 -0.670066 -0.188238 0.04022 
-0.718099 -0.038077 0.033126 -0.746704 -0.205365 0.065269 -0.788174 -0.169703 0.072666 
-0.738237 -0.058014 0.034906 -0.780208 -0.063675 0.047363 -0.784644 -0.053155 0.04473 
-0.812163 -0.085704 0.060118 -0.816261 -0.125316 0.064656 -0.802805 -0.205231 0.072486 
-0.82984 -0.150269 0.074306 0.558213 -0.146815 0.211753 -0.668936 0.006674 0.002745 

POLYGONS 501 1500
OFFSETS vtktypeint64
0 3 6 9 12 15 18 21 24 
27 30 33 36 39 42 45 48 51 
54 57 60 63 66 69 72 75 78 
81 84 87 90 93 96 99 102 105 
108 111 114 117 120 123 126 129 132 
135 138 141 144 147 150 153 156 159 
162 165 168 171 174 177 180 183 186 
189 192 195 198 201 204 207 210 213 
216 219 222 225 228 231 234 237 240 
243 246 249 252 255 258 261 264 267 
270 273 276 279 282 285 288 291 294 
297 300 303 306 309 312 315 318 321 
324 327 330 333 336 339 342 345 348 
351 354 357 360 363 366 369 372 375 
378 381 384 387 390 393 396 399 402 
405 408 411 414 417 420 423 426 429 
432 435 438 441 444 447 450 453 456 
459 462 465 468 471 474 477 480 483 
486 489 492 495 498 501 504 507 510 
513 516 519 522 525 528 531 534 537 
540 543 546 549 552 555 558 561 564 
567 570 573 576 579 582 585 588 591 
594 597 600 603 606 609 612 615 618 
621 624 627 630 633 636 639 642 645 
648 651 654 657 660 663 666 669 672 
675 678 681 684 687 690 693 696 699 
702 705 708 711 714 717 720 723 726 
729 732 735 738 741 744 747 750 753 
756 759 762 765 768 771 774 777 780 
783 786 789 792 795 798 801 804 807 
810 813 816 819 822 825 828 831 834 
837 840 843 846 849 852 855 858 861 
864 867 870 873 876 879 882 885 888 
891 894 897 900 903 906 909 912 915 
918 921 924 927 930 933 936 939 942 
945 948 951 954 957 960 963 966 969 
972 975 978 981 984 987 990 993 996 
999 1002 1005 1008 1011 1014 1017 1020 1023 
1026 1029 1032 1035 1038 1041 1044 1047 1050 
1053 1056 1059 1062 1065 1068 1071 1074 1077 
1080 1083 1086 1089 1092 1095 1098 1101 1104 
1107 1110 1113 1116 1119 1122 1125 1128 1131 
1134 1137 1140 1143 1146 1149 1152 1155 1158 
1161 1164 1167 1170 1173 1176 1179 1182 1185 
1188 1191 1194 1197 1200 1203 1206 1209 1212 
1215 1218 1221 1224 1227 1230 1233 1236 1239 
1242 1245 1248 1251 1254 1257 1260 1263 1266 
1269 1272 1275 1278 1281 1284 1287 1290 1293 
1296 1299 1302 1305 1308 1311 1314 1317 1320 
1323 1326 1329 1332 1335 1338 1341 1344 1347 
1350 1353 1356 1359 1362 1365 1368 1371 1374 
1377 1380 1383 1386 1389 1392 1395 1398 1401 
1404 1407 1410 1413 1416 1419 1422 1425 1428 
1431 1434 1437 1440 1443 1446 1449 1452 1455 
1458 1461 1464 1467 1470 1473 1476 1479 1482 
1485 1488 1491 1494 1497 1500 
CONNECTIVITY vtktypeint64
21 29 39 62 115 83 122 115 152 
174 193 194 39 29 38 115 62 138 
197 191 203 32 33 42 75 62 83 
75 83 79 94 79 83 94 83 115 
94 115 123 123 115 122 136 122 174 
122 152 174 188 174 194 240 237 236 
152 193 174 191 188 194 191 194 203 
29 30 38 64 63 75 64 75 90 
170 175 191 175 188 191 194 196 203 
56 60 62 57 60 56 52 57 56 
52 51 57 46 39 51 40 42 52 
222 231 228 220 217 222 52 46 51 
52 42 46 34 39 46 56 62 63 
60 57 55 51 55 57 48 52 56 
39 45 51 40 52 48 32 42 40 
63 62 75 219 216 228 213 196 210 
225 218 226 224 214 223 211 212 218 
212 219 218 224 209 214 211 208 212 
204 201 208 205 199 206 199 200 206 
200 204 206 200 189 204 141 111 127 
59 61 65 58 64 67 61 58 67 
59 58 61 47 58 59 47 50 58 
54 49 59 53 49 54 47 43 50 
41 49 53 37 41 38 37 36 41 
234 243 251 227 234 251 227 223 234 
227 224 223 218 219 226 205 206 209 
208 202 212 201 202 208 189 192 204 
36 35 43 127 157 141 232 238 229 
77 64 90 240 236 244 244 236 245 
236 243 245 244 245 246 25 32 35 
64 77 67 65 61 67 65 67 77 
65 77 98 98 77 95 98 95 111 
166 157 170 170 191 166 166 191 192 
192 191 197 226 230 232 232 230 240 
242 244 246 22 18 30 18 37 30 
26 25 35 31 26 35 38 30 37 
157 149 170 189 166 192 192 197 204 
232 240 238 242 240 244 249 242 246 
18 31 37 37 31 36 36 31 35 
95 110 114 111 95 114 111 114 127 
127 139 157 157 139 149 139 148 149 
238 240 242 197 203 201 204 197 201 
189 200 161 161 166 189 141 157 161 
111 141 138 60 59 65 58 63 64 
55 54 59 50 48 58 55 53 54 
43 48 50 45 41 53 35 40 43 
45 38 41 201 203 202 152 141 161 
138 98 111 55 59 60 226 219 228 
33 34 42 33 11 34 233 239 235 
229 238 239 234 233 235 229 239 233 
229 225 232 214 229 233 223 214 233 
229 221 225 214 221 229 221 218 225 
211 218 221 215 221 214 215 211 221 
215 208 211 206 208 215 206 204 208 
49 44 47 44 43 47 41 44 49 
41 36 44 36 43 44 234 235 243 
223 233 234 232 225 226 209 215 214 
206 215 209 49 47 59 190 195 185 
163 195 178 119 190 185 163 178 130 
107 130 178 107 99 130 76 135 119 
99 107 100 100 66 99 176 178 190 
135 176 190 25 17 32 77 90 95 
112 117 124 145 136 155 79 94 96 
17 33 32 79 96 82 21 9 29 
90 75 79 90 79 84 175 168 188 
9 22 29 22 30 29 19 17 25 
170 149 175 19 25 26 19 26 31 
95 90 91 95 91 110 2 18 22 
18 2 4 4 0 31 18 4 31 
31 0 19 143 149 148 112 110 117 
110 91 117 117 91 120 117 120 121 
121 140 133 133 140 143 133 143 148 
124 117 121 124 121 133 147 104 116 
147 145 153 93 102 113 104 93 113 
104 113 116 147 116 136 147 136 145 
145 155 154 119 135 190 250 27 28 
250 24 27 24 20 27 27 20 23 
10 24 250 42 34 46 6 9 11 
155 174 188 155 136 174 113 94 123 
156 171 173 6 11 8 116 123 136 
116 113 123 124 133 148 128 124 148 
128 112 124 242 249 248 241 238 242 
239 238 241 139 128 148 127 128 139 
114 128 127 114 112 128 243 248 247 
110 112 114 123 122 136 135 107 178 
21 39 34 135 100 107 153 145 158 
145 154 158 66 68 93 99 66 104 
68 76 119 108 68 137 99 104 130 
137 68 119 104 147 130 137 119 169 
130 147 163 169 119 185 163 153 195 
169 185 195 93 68 108 66 93 104 
126 108 137 163 147 153 153 158 169 
153 169 195 93 108 102 126 137 134 
137 169 134 134 169 158 150 134 158 
154 150 158 102 108 126 131 126 134 
131 134 150 87 81 96 87 102 126 
101 87 126 101 126 131 132 131 159 
159 131 150 159 150 154 132 159 156 
156 159 167 7 6 8 81 71 82 
82 71 74 88 87 101 109 97 101 
97 88 101 101 131 132 132 156 146 
182 167 184 167 183 184 184 183 187 
183 186 187 71 72 74 72 109 74 
84 74 109 84 109 106 106 109 101 
106 101 118 118 101 132 118 132 142 
142 132 146 164 146 186 164 186 183 
121 120 140 143 140 151 140 144 151 
140 120 144 120 91 103 0 14 19 
1 2 22 151 162 149 120 125 144 
103 125 120 103 105 125 103 91 105 
149 162 175 162 129 142 144 162 151 
144 129 162 125 129 144 125 105 106 
91 90 105 17 19 14 5 22 9 
5 1 22 162 164 168 175 162 168 
162 142 164 105 84 106 13 17 14 
142 146 164 82 74 84 79 82 84 
168 164 183 167 168 183 81 82 96 
154 188 168 154 168 167 159 154 167 
87 96 102 96 113 102 96 94 113 
143 151 149 90 84 105 154 155 188 
212 213 219 205 209 207 202 213 212 
193 200 199 193 161 200 152 161 193 
138 141 152 65 98 138 60 65 138 
58 56 63 48 56 58 45 53 55 
51 45 55 43 40 48 39 38 45 
35 32 40 251 231 227 228 237 230 
226 228 230 224 227 231 224 231 222 
217 224 222 217 209 224 207 209 217 
198 205 207 198 199 205 203 196 213 
202 203 213 213 216 219 193 199 198 
115 138 152 60 138 62 172 184 187 
187 181 172 186 181 187 177 172 181 
177 173 172 156 173 146 69 70 71 
171 182 184 156 182 171 92 88 97 
71 81 69 9 6 16 156 167 182 
69 81 88 88 81 87 157 166 161 
72 71 109 86 70 92 5 16 20 
71 70 73 71 73 109 109 73 86 
73 89 86 109 86 97 86 92 97 
146 173 186 160 173 177 186 173 181 
160 177 179 173 160 181 179 177 181 
13 15 23 9 21 11 78 73 70 
73 78 89 78 80 89 180 165 160 
181 160 165 179 181 165 1 5 24 
2 1 24 15 14 28 15 13 14 
118 142 129 9 16 5 195 190 178 
76 66 135 4 2 0 125 118 129 
125 106 118 235 239 241 180 179 165 
180 160 179 89 80 85 78 85 80 
70 86 85 78 70 85 5 20 24 
173 171 172 16 23 20 69 88 92 
0 28 14 0 3 28 0 24 3 
24 10 3 86 89 85 171 184 172 
70 69 92 2 24 0 235 241 248 
237 228 231 210 220 216 3 12 28 
11 21 34 12 250 28 216 222 228 
241 242 248 230 237 240 3 10 12 
196 207 210 10 250 12 213 210 216 
194 193 196 193 198 196 135 178 176 
66 76 68 245 243 247 216 220 222 
246 247 249 235 248 243 237 231 236 
245 247 246 248 249 247 251 243 236 
7 13 23 6 23 16 17 8 33 
7 17 13 33 8 11 23 6 7 
27 15 28 27 23 15 207 220 210 
220 207 217 7 8 17 135 66 100 
207 196 198 231 251 236 
POINT_DATA 252
SCALARS k float
LOOKUP_TABLE default
-0.801256 -0.0229832 0.60071 0.925026 0.152953 -0.0280062 -0.405254 0.181235 0.337392 
0.00918096 1.37739 0.647124 1.31649 -0.00961173 -0.106491 -0.0113341 1.41419 -0.0310441 
0.345679 -0.0762084 0.648043 0.0416316 -0.0485809 -0.2903 -0.0740363 -0.0285602 -0.155897 
1.2363 -0.0995247 -0.0131034 -0.030998 -0.343097 -0.016311 -0.147185 0.289461 -0.23371 
0.239338 0.0364017 -0.0180931 0.0559794 -0.0296341 0.123833 -0.241333 -0.387527 0.180334 
-0.0243897 1.60316 0.291729 -0.0130142 0.111479 -0.0329852 -0.840589 -0.757611 -0.00150681 
-0.00297856 -0.0146725 -1.16206 1.32378 -0.325274 -0.0849065 -0.754303 1.03119 -0.750608 
-0.136149 -0.118519 -0.125884 0.22253 0.164103 0.0946038 1.24594 -1.07327 -1.28269 
2.04981 -1.10401 -0.486304 -0.151996 0.53971 -1.37056 2.73475 -0.15952 1.68103 
0.608747 -0.324217 -0.0628796 -0.465323 1.10566 -2.01842 -1.58046 0.729043 2.65537 
-0.200699 -0.285473 0.564253 -0.355265 -0.217599 -0.382895 -0.34061 -0.0570143 -1.48432 
-0.0322022 2.23777 -1.17234 -0.491119 0.698963 -0.19596 0.0122306 -0.500038 -0.00121045 
-0.0803506 -2.63753 -0.0389063 -0.280912 0.763879 -0.297364 -0.200077 -0.0550228 -0.0293531 
0.458016 0.00999129 -0.00328764 -0.320893 0.640027 0.0329698 0.00381005 1.36352 0.0215361 
-0.113177 -0.0590756 0.175176 0.0516882 -0.0148932 0.00753999 -0.890851 1.04069 -0.0452958 
0.743569 -0.21546 -0.00201356 -0.0807528 -0.146595 -0.00940347 -0.0486037 -0.380548 0.00633723 
0.0750691 -0.15319 -1.48198 -0.122278 0.71597 -0.15244 -0.168603 0.0775868 -0.0300786 
-0.369253 -0.737002 -0.212276 -0.0168363 -0.396308 0.0096283 -0.974598 -1.0682 -0.696621 
-0.00307006 -0.02341 -0.53443 3.14059 -2.21129 -0.251579 -0.349632 -0.208355 -0.283097 
0.577641 1.12769 -0.0378838 -0.473925 -0.126085 2.98223 -0.422143 0.560549 0.841674 
3.53291 -1.98841 0.81817 -0.0386446 0.267545 0.0613544 -1.4883 0.37865 -0.310923 
0.581167 -0.815241 -0.698155 0.463519 -0.0793424 -1.17532 0.939313 -0.626092 -0.0506658 
0.078853 -0.0165449 0.379987 -0.0261984 4.05312e-06 -0.0335041 0.0523221 0.00882953 -0.0172198 
0.119823 0.0946943 -0.00838715 0.0915678 -0.0834022 -0.0266232 -0.012005 0.00448143 0.250593 
0.44682 -0.0107403 -0.00989115 -0.000464499 0.387175 -0.171885 0.124862 -0.00125974 -0.00191748 
0.00237584 -0.0057596 -0.00421202 -0.101765 -0.167906 0.00763369 0.0229698 0.00215095 -0.0362537 
-0.00467467 0.0369374 1.61557 0.338091 -0.0248249 -0.12053 0.00121698 0.493722 0.0298628 
0.00329351 -0.00782919 -0.536185 0.863341 0.00889975 2.14765 1.48797 -0.123828 0.00193906 

FIELD FieldData 7
h 1 252 float
-1.24271 2.11519 3.12798 3.9364 1.95302 2.38866 3.36308 -1.92582 -3.37974 
2.55881 3.27055 2.71273 -0.631758 -1.78143 -1.37208 -2.49842 2.6182 -3.07889 
2.84763 -1.60368 3.50473 2.58173 2.05358 -2.49941 2.87142 -2.05752 -1.83764 
-1.61661 -2.39689 2.39633 2.23728 -2.99458 -1.95639 -2.77503 3.05751 -1.66828 
-2.36714 2.67759 2.88263 1.6505 -2.15598 1.67598 -3.58968 -1.07982 2.37615 
3.78103 3.06237 -1.89408 -1.04848 3.24801 -1.45561 2.24433 -2.42031 3.04353 
2.35975 2.72685 -2.56527 2.94397 -2.33214 2.28775 1.64617 3.28699 1.2545 
-2.40224 -2.07992 1.66687 1.5803 -1.4412 2.56496 9.27867 9.93933 -0.759857 
0.173477 0.673946 0.66122 -2.20791 2.48179 -1.04728 -0.597076 -1.89011 1.85659 
2.02896 2.24933 1.37181 -0.520552 -0.927 0.448987 1.7621 -1.34387 4.56532 
-1.55143 -0.979295 -1.49535 2.53565 2.72956 2.04587 4.83744 0.128519 1.92872 
1.87301 1.94569 2.27009 -0.110301 1.15161 1.59501 -0.0777242 1.08153 1.89478 
3.2536 -0.906593 0.366628 0.925116 11.6123 2.82585 3.10757 0.6255 -0.509425 
-0.846014 3.59132 2.18371 2.5005 3.87558 0.596177 0.263102 -0.17754 2.95887 
2.64109 -0.115767 -1.20036 2.93518 0.46796 2.4357 2.7102 1.53449 1.58715 
2.8179 0.0145926 1.48578 1.06068 1.32567 3.45455 0.683032 1.91978 -1.81899 
2.90472 3.17042 -0.116116 -0.860175 4.4989 1.03694 0.511315 1.0988 0.70589 
1.78508 -0.81051 3.78887 0.900839 1.84647 0.183233 1.00181 -12.2348 1.10482 
0.172782 -0.717665 0.784384 -5.19264 3.62973 1.6501 -1.71816 2.45756 -1.33053 
-1.22525 13.484 0.449831 0.757211 -1.70103 1.01531 -0.780292 1.50125 4.16609 
-1.2052 -0.627756 5.05828 2.27809 -0.975691 2.55044 0.71612 -0.841255 -1.28699 
-0.189922 2.11878 -1.58289 -0.761212 0.748147 -1.84941 1.31884 -1.4004 -1.21112 
1.45074 1.25748 1.38341 -1.32347 -1.41192 -1.51355 0.463114 1.43533 1.88414 
1.38527 -0.480227 1.58024 -1.2746 0.423773 0.026302 -1.30601 0.162832 1.14741 
-0.453982 1.03075 0.486937 0.405881 2.85218 2.11932 0.0376799 -0.0185538 0.0126903 
0.351327 0.518948 0.139908 0.156833 1.23952 0.332793 -0.0624556 0.623574 0.0524591 
0.0751149 0.0117446 0.0717485 0.192642 0.310519 2.2479 0.328703 0.297709 0.220342 
-0.0321354 0.361852 0.0883548 0.450106 0.0891156 0.0934156 0.481176 -0.719826 -0.0062153 

kmin 1 252 float
2.72783 6.28077 7.1332 6.32985 3.63352 6.18591 7.24978 3.13147 0.918617 
7.4347 8.02788 6.16107 2.90736 4.2918 3.63317 2.40425 5.94169 1.49572 
6.48843 2.78595 8.00399 5.7434 6.44257 2.74797 8.1697 2.1789 2.47962 
0.823652 1.10852 6.11308 5.74546 -0.247214 2.39765 0.412407 5.63304 2.58306 
0.194383 5.61782 4.59731 4.15103 2.67107 3.43054 -0.659706 2.95498 2.59593 
5.26864 3.91295 -1.01378 3.74798 4.44208 2.60399 2.37976 0.865156 4.36294 
3.232 4.34813 -1.6696 4.52448 -0.437414 3.60886 2.91885 5.11572 2.47913 
-2.17353 0.604854 2.86171 3.93265 -0.0182654 4.69409 15.4981 15.1731 1.68284 
2.13937 0.976754 2.57756 -0.263512 4.75934 0.0343215 0.802846 0.325 5.15145 
4.6229 4.25853 4.02835 1.28054 -0.618634 1.18864 3.91332 0.498169 8.63542 
0.484685 1.68025 1.40292 5.17843 6.36106 5.65614 9.57773 1.5908 5.17961 
6.24076 6.03277 3.8294 1.45667 1.85868 4.13553 1.2501 1.56836 5.57556 
5.83219 5.53215 2.58816 2.49435 20.6364 5.37485 3.80563 1.54688 -0.0624877 
-0.31253 6.30297 3.89783 4.52107 9.06552 1.65195 1.28509 0.330302 5.11736 
4.80331 1.10772 0.20868 4.39233 2.03786 4.47184 4.73641 3.83083 3.15366 
5.43401 1.24467 2.84117 2.22264 2.61852 7.88854 1.92158 2.80672 -0.718808 
4.70652 5.97459 1.42036 -0.725328 6.89153 3.76808 1.7905 1.55436 1.66438 
4.66223 1.69026 7.57835 3.97087 3.43608 1.04169 1.80792 0.900932 2.49578 
1.19877 0.0146897 1.6276 9.31748 8.8633 4.95127 0.860552 4.12364 5.50143 
0.468309 19.8969 2.98431 2.41302 0.528302 1.92612 0.621344 4.80447 8.50678 
2.03725 0.134226 8.8082 4.06144 0.404429 4.71995 1.80029 2.02117 0.0276264 
0.548253 4.29025 0.371036 0.465129 1.68117 -0.526488 4.67487 -0.375504 0.37143 
2.63102 2.36562 2.55995 -0.824571 -1.1114 -0.964069 2.80661 2.70287 3.38527 
2.4138 -0.018992 2.73054 -1.09806 1.359 0.946817 -1.14348 0.525712 1.74338 
0.0496498 1.67675 1.37798 1.57703 4.95353 4.68267 0.494017 0.412942 0.473191 
0.981707 1.50685 0.469394 0.884761 2.79579 1.03405 0.426691 1.42726 0.41342 
0.39008 0.396968 0.405786 0.772469 0.827798 4.59407 0.885041 0.802984 0.684122 
0.472115 0.776632 0.432695 0.974576 0.433935 0.459354 1.02693 2.05818 0.386165 

kmax 1 252 float
-5.21326 -2.0504 -0.877234 1.54294 0.272524 -1.40859 -0.523631 -6.9831 -7.67809 
-2.31708 -1.48679 -0.735616 -4.17087 -7.85467 -6.37732 -7.40109 -0.705302 -7.6535 
-0.793164 -5.99332 -0.994529 -0.579945 -2.33541 -7.74678 -2.42686 -6.29393 -6.15489 
-4.05688 -5.90229 -1.32043 -1.27091 -5.74194 -6.31042 -5.96246 0.481969 -5.91962 
-4.92867 -0.262632 1.16796 -0.850022 -6.98304 -0.0785892 -6.51964 -5.11462 2.15638 
2.29342 2.21179 -2.77439 -5.84494 2.05394 -5.51521 2.1089 -5.70578 1.72412 
1.48749 1.10556 -3.46094 1.36346 -4.22687 0.966636 0.373482 1.45825 0.0298644 
-2.63095 -4.7647 0.472026 -0.772045 -2.86413 0.43584 3.05922 4.7056 -3.20255 
-1.79242 0.371139 -1.25512 -4.1523 0.204244 -2.12887 -1.997 -4.10521 -1.43827 
-0.564991 0.240127 -1.28474 -2.32165 -1.23537 -0.290668 -0.389114 -3.1859 0.495234 
-3.58755 -3.63884 -4.39362 -0.10713 -0.901945 -1.5644 0.0971561 -1.33377 -1.32217 
-2.49475 -2.14138 0.710786 -1.67727 0.444553 -0.945501 -1.40554 0.59469 -1.78601 
0.675 -7.34534 -1.85491 -0.644116 2.5883 0.276847 2.40951 -0.295883 -0.956362 
-1.3795 0.879658 0.469587 0.47993 -1.31435 -0.459598 -0.758884 -0.685383 0.800386 
0.47887 -1.33926 -2.6094 1.47802 -1.10194 0.399561 0.683993 -0.761841 0.0206438 
0.201781 -1.21549 0.130393 -0.101284 0.0328261 -0.979426 -0.555511 1.03284 -2.91918 
1.10291 0.36625 -1.65259 -0.995023 2.10628 -1.6942 -0.767875 0.643234 -0.252597 
-1.09206 -3.31128 -0.000617184 -2.16919 0.25686 -0.675224 0.195694 -25.3705 -0.286147 
-0.853209 -1.45002 -0.0588305 -19.7028 -1.60384 -1.65106 -4.29686 0.791485 -8.1625 
-2.91882 7.07109 -2.08465 -0.898596 -3.93036 0.104495 -2.18193 -1.80196 -0.174605 
-4.44765 -1.38974 1.30837 0.494745 -2.35581 0.380919 -0.368048 -3.70368 -2.60161 
-0.928097 -0.0526881 -3.53681 -1.98755 -0.184872 -3.17233 -2.0372 -2.42529 -2.79367 
0.270454 0.149339 0.206874 -1.82237 -1.71244 -2.06304 -1.88038 0.167792 0.383016 
0.356735 -0.941463 0.429941 -1.45115 -0.511451 -0.894213 -1.46854 -0.200049 0.551433 
-0.957614 0.384747 -0.40411 -0.765273 0.750835 -0.444017 -0.418657 -0.45005 -0.447811 
-0.279054 -0.468956 -0.189578 -0.571095 -0.316742 -0.368463 -0.551603 -0.18011 -0.308502 
-0.23985 -0.373479 -0.262289 -0.387185 -0.206761 -0.0982743 -0.227634 -0.207566 -0.243438 
-0.536386 -0.0529275 -0.255986 -0.0743644 -0.255704 -0.272523 -0.0645762 -3.49783 -0.398596 

hks 16 252 double
0.71323302052 0.72430292393 0.73574634164 0.74757268315 0.75979141779 0.77241170942 0.78544203339 0.79888979107 0.8127609365 
0.82705962875 0.84178792205 0.85694550321 0.87252948384 0.88853425216 0.90495138635 0.92176962934 1.0730466679 1.0715511524 
1.0707540519 1.0706363058 1.0711807543 1.0723726332 1.074199901 1.0766533984 1.0797268462 1.0834166948 1.0877218426 
1.0926432431 1.0981834238 1.1043459388 1.1111347796 1.1185537639 0.75938825012 0.76621597088 0.77340181924 0.7809695717 
0.78894312658 0.79734620061 0.80620199325 0.81553282331 0.82535974425 0.83570214612 0.84657735356 0.85800023039 0.86998280192 
0.88253390648 0.8956588868 0.90935933139 1.1724882096 1.1764099322 1.1806494607 1.1852314599 1.1901782442 1.195509323 
1.2012410228 1.2073862016 1.2139540623 1.2209500709 1.2283759781 1.2362299386 1.244506718 1.2531979743 1.2622925949 
1.2717770719 0.58130350947 0.5882067223 0.59554662448 0.60335264347 0.61165496593 0.62048399971 0.62986976447 0.63984122725 
0.65042560271 0.66164764076 0.67352892529 0.68608720917 0.69933580935 0.7132830846 0.72793201512 0.74327989939 1.0944007523 
1.0950119448 1.095947394 1.09724003 1.0989219738 1.1010243184 1.1035768958 1.1066080303 1.1101442777 1.1142101535 
1.1188278585 1.1240170076 1.1297943744 1.1361736584 1.1431652865 1.150776255 0.67982518478 0.68664453129 0.69385846253 
0.70150780876 0.70963337636 0.71827520892 0.72747182113 0.73725942298 0.74767115357 0.75873634435 0.77047983219 0.78292134222 
0.7960749595 0.80994870644 0.82454423995 0.83985667885 0.76610920763 0.77248643497 0.77921397026 0.786324843 0.79385186785 
0.80182716889 0.81028168653 0.81924467486 0.82874319847 0.83880163908 0.84944122335 0.8606795843 0.87253036851 0.88500290148 
0.89810192192 0.91182739393 0.65733480478 0.6620754611 0.66711220086 0.6724805237 0.6782170913 0.68435936558 0.69094520325 
0.69801240664 0.70559823206 0.71373885895 0.72246882577 0.73182044132 0.7418231829 0.75250309559 0.76388220855 0.77597798581 
0.85086912235 0.85030060728 0.85006195815 0.85018060775 0.85068603983 0.85160984041 0.85298565951 0.85484907006 0.85723731428 
0.86018893292 0.86374327804 0.86793991574 0.87281793105 0.87841515262 0.88476731941 0.89190721527 1.2093248191 1.2149560366 
1.220734075 1.2266896788 1.232851067 1.2392434091 1.2458884194 1.2528040765 1.2600044716 1.2674997834 1.2752963711 
1.2833969728 1.2918009915 1.3005048502 1.3095023932 1.318785311 0.61450874404 0.61784837153 0.62139432752 0.62519123028 
0.62928607617 0.63372773569 0.63856637693 0.64385282033 0.64963783103 0.65597135794 0.66290173132 0.67047483389 0.67873326307 
0.68771550447 0.69745513805 0.70798009961 1.1944350778 1.201432376 1.2085051168 1.2156786387 1.2229770948 1.2304229296 
1.2380364379 1.2458354185 1.2538349317 1.2620471599 1.270481373 1.279143987 1.2880387068 1.2971667371 1.3065270439 
1.3161166474 1.0239214955 1.0263361453 1.0291548799 1.0323838804 1.0360333013 1.0401167299 1.0446504876 1.0496528135 
1.0551429811 1.0611403927 1.0676636989 1.0747299795 1.0823540195 1.0905477009 1.0993195245 1.1086742657 0.99246877623 
0.99637073459 1.0008401911 1.0058644121 1.0114284123 1.0175157008 1.0241090157 1.0311910152 1.0387448972 1.046754924 
1.0552068345 1.0640881324 1.0733882454 1.0830985556 1.0932123091 1.1037244136 1.2409227745 1.2429065065 1.2453397172 
1.2482227304 1.2515536318 1.255328617 1.2595423534 1.264188338 1.2692592317 1.2747471564 1.2806439418 1.2869413128 
1.2936310135 1.3007048673 1.308154776 1.3159726658 0.8857757559 0.89034917089 0.89545944428 0.90113706446 0.90741163161 
0.9143110182 0.92186053422 0.93008213012 0.93899366846 0.94860829202 0.9589339111 0.96997282768 0.98172150751 0.99417050487 
1.0073045387 1.021102712 0.86187370298 0.86332458769 0.86489510989 0.86660258649 0.86846690983 0.87051081259 0.87276007712 
0.87524367027 0.87799378594 0.88104578009 0.88443798597 0.88821140189 0.89240924792 0.89707639368 0.90225866421 0.90800203636 
0.64459664317 0.64604659822 0.64784844467 0.65004714692 0.65268901116 0.65582113031 0.65949075626 0.6637446096 0.66862814014 
0.67418475529 0.68045503575 0.68747596064 0.69528016489 0.70389525207 0.7133431846 0.72363977079 0.74281620914 0.7450259148 
0.74758570222 0.75051835335 0.75384858022 0.75760263979 0.76180792048 0.76649251377 0.77168478106 0.77741292322 0.78370455663 
0.79058629719 0.79808335177 0.80621911538 0.81501477241 0.82448890097 0.98429590004 0.99414891489 1.004613257 1.0156640033 
1.0272735491 1.0394119918 1.0520475145 1.0651467646 1.0786752257 1.0925975827 1.1068780773 1.121480857 1.1363703119 
1.1515114013 1.1668699631 1.182413003 0.8242902616 0.81827561325 0.81250369848 0.80699833499 0.80178967422 0.79691387282 
0.79241261475 0.788332501 0.78472432388 0.78164224154 0.7791428672 0.77728428637 0.77612501504 0.77572291213 0.77613406109 
0.7774116377 0.88717710733 0.88870072333 0.89035864287 0.89216591998 0.89414172201 0.89630932477 0.898696017 0.90133291404 
0.90425468108 0.90749916685 0.91110694912 0.91512079405 0.91958503303 0.92454486172 0.93004556899 0.93613170548 0.86182339239 
0.87298921047 0.88454478732 0.89650261443 0.90887308241 0.92166412288 0.93488089108 0.94852549872 0.96259680568 0.9770902772 
0.99199791172 1.0073082422 1.023006412 1.0390743232 1.0554908548 1.0722321436 0.99954759078 1.0125409802 1.0255840338 
1.0386743626 1.0518119797 1.0649988047 1.0782381579 1.0915342701 1.1048918317 1.1183155961 1.1318100511 1.1453791623 
1.159026189 1.1727535674 1.1865628535 1.200454714 1.0440140904 1.0321091492 1.0203039722 1.0086445642 0.99717924691 
0.98595896654 0.97503757261 0.96447203354 0.95432255575 0.94465257462 0.93552859062 0.92701982987 0.91919771675 0.91213515509 