# vtk DataFile Version 5.1
vtk output
ASCII
DATASET POLYDATA
POINTS 252 float
0.036952 -0.496376 -0.384255 0.116967 -0.452888 -0.412692 0.099167 -0.508346 -0.423287 
0.062321 -0.444604 -0.40555 0.106507 -0.450402 -0.296767 0.09763 -0.547934 -0.326919 
0.034357 -0.479178 -0.250681 0.136417 -0.514012 -0.287104 0.050582 -0.550755 -0.257123 
0.428645 -0.287057 -0.225296 0.100527 -0.47659 -0.186125 0.416097 -0.234324 -0.197005 
0.094848 -0.557004 -0.17053 0.502832 -0.28219 -0.199253 0.019883 -0.453957 -0.109581 
0.462613 -0.212404 -0.21096 0.034915 -0.524918 -0.127549 -0.12088 0.098237 -0.236431 
0.440678 -0.241762 -0.116629 -0.024943 -0.067981 -0.2073 -0.204643 -0.048744 -0.204001 
0.500642 -0.307332 -0.045615 -0.356319 -0.48876 -0.000714 -0.100148 0.154532 -0.216891 
0.073548 0.096712 -0.196542 -0.398655 -0.720636 -0.074246 -0.459741 -0.685181 -0.067774 
0.099172 0.346754 -0.257728 0.489455 -0.376641 -0.045001 -0.087908 -0.159597 -0.169372 
-0.264072 0.046142 -0.165056 -0.386969 -0.682596 -0.111819 0.148006 -0.015288 -0.149825 
-0.450463 -0.683938 -0.125419 0.012753 -0.225812 -0.096921 0.244672 0.416951 -0.254068 
0.123586 -0.132016 -0.120199 0.004083 0.368513 -0.215203 -0.349908 -0.596328 -0.013623 
0.174027 0.256534 -0.215159 0.284157 0.313715 -0.215071 -0.232187 -0.134358 -0.119447 
0.280787 0.172593 -0.096341 0.113271 -0.467354 -0.076887 -0.215027 0.12723 -0.183499 
0.408527 -0.339346 -0.034628 0.074332 -0.527 -0.071102 0.108122 -0.516909 -0.104392 
0.090507 0.485272 -0.240144 0.035499 0.211628 -0.1528 -0.081138 -0.242764 -0.058011 
-0.281672 0.020986 -0.123394 -0.019121 0.250754 -0.118686 0.151037 0.164091 -0.116979 
-0.175616 -0.189057 -0.100256 -0.021578 0.414058 -0.158328 -0.437752 -0.562835 -0.052403 
0.157967 0.538588 -0.158839 0.242459 -0.047136 -0.052687 -0.160301 0.20034 -0.151567 
-0.380181 -0.580959 0.035669 0.169954 -0.181366 -0.044707 -0.430188 -0.563865 0.032351 
0.003631 -0.439992 0.025551 -0.041989 0.318584 -0.087505 0.182345 0.090456 -0.121068 
0.018546 -0.394913 -2.9e-05 0.020798 0.464786 -0.101626 0.304089 0.478773 -0.194073 
-0.244674 0.140009 -0.094826 0.05982 -0.384906 -0.000183 0.284771 0.515057 -0.147304 
0.20028 0.138416 -0.063143 0.442373 -0.379606 -0.056356 -0.235347 -0.150379 -0.045873 
0.477957 -0.332935 0.027239 0.388147 0.414844 -0.072741 0.263637 0.047849 0.012998 
-0.34966 -0.37871 -0.007359 -0.309838 -0.273165 0.020923 -0.157575 -0.228956 -0.016928 
-0.002335 -0.27122 -0.004379 -0.284115 -0.068813 -0.089251 -0.195054 0.179073 -0.04421 
-0.301317 -0.104641 -0.033603 -0.266731 -0.30019 0.031051 -0.420116 -0.47357 0.028478 
-0.390045 0.145296 -0.001102 -0.247711 -0.042042 0.009179 0.047976 -0.266962 0.003672 
0.450614 -0.300001 -0.012499 0.277487 -0.258035 0.092401 -0.006661 0.244958 -0.038155 
0.426405 -0.390605 0.037412 -0.36384 -0.338259 0.024022 0.390796 0.315309 -0.126895 
0.81479 -0.161193 0.024208 -0.305906 -0.223515 0.025005 0.707006 -0.141756 0.040796 
-0.22712 0.142284 -0.04269 -0.416695 -0.087928 -0.013568 -0.315198 -0.45801 0.057496 
-0.260242 0.045403 -0.019277 0.715734 -0.201225 0.044311 -0.412592 -0.106716 0.046943 
0.182671 0.517763 -0.072453 -0.22455 0.106359 -0.011319 0.319092 -0.345505 0.040408 
0.34387 0.199057 -0.035877 -0.340859 -0.462608 0.082375 0.022868 -0.433845 0.077306 
0.263878 -0.294924 0.081308 -0.080682 0.230701 -0.037844 -0.245986 -0.251176 0.081721 
0.081763 -0.424709 0.049774 0.833358 -0.191103 0.071195 -0.394251 -0.440917 0.078672 
-0.325045 0.0881 0.049975 -0.135193 0.177111 0.01554 0.308508 0.482106 -0.065823 
0.222006 0.086435 0.081411 0.182789 -0.210766 0.03823 -0.128273 0.237033 -0.088867 
-0.30749 -0.237085 0.082228 0.75668 -0.216604 0.081564 0.107531 -0.24331 0.073763 
-0.316319 -0.089241 0.031603 -0.364618 0.080225 0.004586 0.231459 -0.322119 0.136079 
0.031396 -0.254411 0.095947 -0.198753 0.032993 0.044062 -0.495795 -0.164597 0.059224 
-0.209106 -0.152815 0.017635 0.091121 0.455951 -0.028907 -0.461108 -0.072965 0.004934 
0.257288 -0.076191 0.04332 0.677152 -0.10163 0.094127 -0.284154 0.006867 -0.0395 
-0.858559 -0.278827 0.091366 -0.060996 -0.249024 0.05408 0.033018 0.329901 0.017758 
0.582395 -0.110498 0.105578 0.259974 0.447301 0.000618 -0.33773 -0.38123 0.106554 
-0.361167 -0.326772 0.085573 0.264147 -0.00907 0.059184 -0.425208 -0.054526 0.083787 
0.681277 -0.185343 0.144381 -0.505282 0.148815 0.03547 0.5913 -0.182642 0.123366 
0.372146 0.27987 0.00881 -0.042427 -0.225316 0.087242 0.289114 -0.25108 0.137708 
0.197514 -0.172678 0.09006 0.350745 -0.320027 0.138152 0.549364 -0.164496 0.101941 
0.18789 0.153912 0.031669 -0.613464 -0.209629 0.096897 -0.752248 -0.264833 0.060986 
-0.781813 -0.31815 0.081495 -0.569615 0.522519 -0.026754 0.734726 -0.148531 0.142882 
0.065785 0.21402 0.021233 -0.230744 0.236406 -0.016628 -0.376724 0.448417 -0.010929 
-0.718169 -0.213547 0.085818 0.002102 0.173492 0.067056 -0.629135 -0.157942 0.112805 
-0.264813 0.303927 0.017436 0.445471 -0.109375 0.103848 -0.569005 0.461051 -0.015901 
-0.47663 -0.04051 0.063417 0.253127 -0.034134 0.091725 -0.297111 0.281728 0.078488 
-0.472251 0.208375 0.04156 0.038249 -0.159597 0.155369 -0.764975 0.273361 0.017985 
-0.127962 -0.112098 0.108147 0.139309 -0.174641 0.130632 0.119598 0.255588 0.068623 
-0.585637 0.221923 0.059639 0.396049 0.042543 0.107978 0.376473 -0.160009 0.174584 
0.444866 -0.064378 0.149956 0.240983 -0.278358 0.173616 -0.484448 0.114545 0.08031 
-0.1157 0.008677 0.102723 0.320864 0.34706 0.048625 -0.41587 0.42053 0.017604 
0.194846 0.344528 0.073915 0.345145 -0.093701 0.125548 0.118636 0.148628 0.08315 
-0.657893 0.487325 0.004248 0.688649 0.290716 0.074502 0.532997 -0.165612 0.176413 
0.263644 0.213132 0.065877 -0.429776 0.435347 0.041926 -0.332992 0.481965 0.028814 
-0.017673 0.090936 0.112878 -0.629209 -0.150503 0.144313 -0.614282 0.556405 0.028112 
-0.223679 0.33108 0.065178 -0.226912 0.219968 0.052219 -0.4985 -0.164753 0.134753 
-0.622275 -0.239906 0.172926 -0.768854 0.245218 0.105106 0.22514 -0.129555 0.078194 
-0.635272 0.188936 0.091602 -0.243197 0.289239 0.115835 0.025194 -0.022479 0.15294 
0.195904 -0.041373 0.143943 -0.473891 0.534119 0.04198 -0.393881 0.178251 0.084974 
0.107873 0.076607 0.131008 -0.790803 -0.289757 0.15931 0.579602 -0.105023 0.153085 
-0.682418 -0.202472 0.180055 -0.813618 -0.234302 0.12436 0.740045 0.330521 0.089335 
-0.5442 0.249714 0.097671 -0.567104 -0.131159 0.163178 0.489533 0.082204 0.127266 
-0.604824 0.460208 0.048512 0.663168 0.18518 0.156458 -0.353233 0.372015 0.095625 
0.605197 0.24747 0.125048 0.136812 -0.088476 0.157364 0.437514 0.003212 0.151066 
0.334115 -0.065844 0.198587 -0.462066 0.166354 0.131489 0.215829 0.022069 0.114485 
0.377425 0.073719 0.161328 -0.731724 0.339709 0.07054 -0.498356 0.497731 0.072961 
-0.575639 0.181425 0.138412 0.180962 -0.108816 0.138493 -0.342023 0.42353 0.092174 
0.63724 0.334598 0.127609 0.601294 0.150081 0.170444 -0.665911 0.290209 0.13223 
-0.822486 0.326877 0.084027 0.509926 -0.108443 0.19741 0.422103 0.052019 0.218822 
0.391767 -0.011892 0.177848 0.374488 -0.130516 0.217617 0.470822 0.147111 0.189233 
0.681699 0.236463 0.199634 0.539418 0.175172 0.225091 0.598256 0.140258 0.242386 
0.538976 0.064627 0.203442 0.691827 0.335994 0.17043 0.615496 0.20611 0.241128 

POLYGONS 501 1500
OFFSETS vtktypeint64
0 3 6 9 12 15 18 21 24 
27 30 33 36 39 42 45 48 51 
54 57 60 63 66 69 72 75 78 
81 84 87 90 93 96 99 102 105 
108 111 114 117 120 123 126 129 132 
135 138 141 144 147 150 153 156 159 
162 165 168 171 174 177 180 183 186 
189 192 195 198 201 204 207 210 213 
216 219 222 225 228 231 234 237 240 
243 246 249 252 255 258 261 264 267 
270 273 276 279 282 285 288 291 294 
297 300 303 306 309 312 315 318 321 
324 327 330 333 336 339 342 345 348 
351 354 357 360 363 366 369 372 375 
378 381 384 387 390 393 396 399 402 
405 408 411 414 417 420 423 426 429 
432 435 438 441 444 447 450 453 456 
459 462 465 468 471 474 477 480 483 
486 489 492 495 498 501 504 507 510 
513 516 519 522 525 528 531 534 537 
540 543 546 549 552 555 558 561 564 
567 570 573 576 579 582 585 588 591 
594 597 600 603 606 609 612 615 618 
621 624 627 630 633 636 639 642 645 
648 651 654 657 660 663 666 669 672 
675 678 681 684 687 690 693 696 699 
702 705 708 711 714 717 720 723 726 
729 732 735 738 741 744 747 750 753 
756 759 762 765 768 771 774 777 780 
783 786 789 792 795 798 801 804 807 
810 813 816 819 822 825 828 831 834 
837 840 843 846 849 852 855 858 861 
864 867 870 873 876 879 882 885 888 
891 894 897 900 903 906 909 912 915 
918 921 924 927 930 933 936 939 942 
945 948 951 954 957 960 963 966 969 
972 975 978 981 984 987 990 993 996 
999 1002 1005 1008 1011 1014 1017 1020 1023 
1026 1029 1032 1035 1038 1041 1044 1047 1050 
1053 1056 1059 1062 1065 1068 1071 1074 1077 
1080 1083 1086 1089 1092 1095 1098 1101 1104 
1107 1110 1113 1116 1119 1122 1125 1128 1131 
1134 1137 1140 1143 1146 1149 1152 1155 1158 
1161 1164 1167 1170 1173 1176 1179 1182 1185 
1188 1191 1194 1197 1200 1203 1206 1209 1212 
1215 1218 1221 1224 1227 1230 1233 1236 1239 
1242 1245 1248 1251 1254 1257 1260 1263 1266 
1269 1272 1275 1278 1281 1284 1287 1290 1293 
1296 1299 1302 1305 1308 1311 1314 1317 1320 
1323 1326 1329 1332 1335 1338 1341 1344 1347 
1350 1353 1356 1359 1362 1365 1368 1371 1374 
1377 1380 1383 1386 1389 1392 1395 1398 1401 
1404 1407 1410 1413 1416 1419 1422 1425 1428 
1431 1434 1437 1440 1443 1446 1449 1452 1455 
1458 1461 1464 1467 1470 1473 1476 1479 1482 
1485 1488 1491 1494 1497 1500 
CONNECTIVITY vtktypeint64
229 239 234 205 234 239 225 223 238 
238 221 245 195 187 189 193 223 225 
237 225 247 193 218 223 223 218 246 
218 250 246 193 225 237 218 193 237 
218 237 250 241 228 244 242 249 248 
243 227 249 243 249 242 245 231 242 
238 248 249 245 242 247 247 242 248 
248 223 246 225 238 247 238 223 248 
247 248 251 247 238 245 248 246 251 
246 250 251 251 237 247 118 198 166 
210 172 230 145 230 172 135 145 172 
135 172 190 190 169 182 169 155 182 
182 149 194 155 149 182 212 87 174 
99 212 106 99 87 212 118 186 198 
130 186 118 118 106 130 206 190 182 
206 135 190 176 180 207 174 148 180 
87 148 174 87 127 148 117 106 212 
127 117 185 148 127 185 130 177 186 
88 177 130 178 153 235 153 206 235 
152 178 184 15 18 21 13 15 21 
15 11 18 15 9 11 17 19 20 
9 13 28 10 16 14 12 47 46 
47 10 43 7 47 12 7 10 47 
16 12 46 33 31 25 9 15 13 
4 6 10 7 4 10 10 6 16 
16 8 12 6 8 16 12 5 7 
8 5 12 3 6 4 3 0 6 
7 1 4 6 0 8 1 3 4 
3 2 0 2 3 1 2 1 7 
0 5 8 0 2 5 5 2 7 
180 219 174 117 212 229 219 180 232 
232 239 219 228 235 244 210 235 228 
235 210 226 226 210 209 198 186 209 
213 198 209 212 174 219 149 147 194 
194 147 161 161 241 194 182 194 244 
244 194 241 183 228 241 169 190 183 
190 228 183 190 172 228 230 145 243 
37 49 52 228 172 210 120 213 210 
213 209 210 141 183 215 161 215 241 
241 215 183 230 243 242 96 98 136 
161 96 136 115 96 161 192 170 222 
160 170 192 122 163 168 201 122 168 
112 122 201 118 112 208 112 118 166 
156 191 120 145 77 181 181 120 231 
77 120 181 145 227 243 227 145 181 
141 169 183 136 215 161 136 141 215 
98 155 141 149 124 147 149 103 124 
147 115 161 124 115 147 168 163 173 
173 163 202 163 83 202 202 118 208 
83 106 118 83 118 202 141 155 169 
155 103 149 98 141 136 110 16 46 
46 47 114 47 43 114 22 56 86 
86 56 62 56 26 62 25 38 60 
62 25 60 26 25 62 68 48 57 
35 48 68 48 27 37 27 48 35 
39 35 40 27 35 39 40 35 95 
39 40 42 37 27 49 27 39 49 
65 24 49 49 23 52 24 23 49 
17 23 24 32 24 65 23 44 59 
17 44 23 19 17 24 52 59 122 
166 198 191 168 173 188 160 192 200 
160 200 211 230 120 210 181 221 227 
231 120 230 231 230 242 120 191 213 
191 198 213 112 201 208 173 202 208 
208 197 236 224 188 173 224 173 208 
224 208 236 196 188 224 222 170 196 
222 196 233 192 222 200 200 222 233 
221 181 231 208 201 197 236 196 224 
236 197 233 196 236 233 233 197 211 
211 200 233 227 221 249 249 221 238 
221 231 245 179 195 189 32 65 58 
59 44 69 36 32 58 69 51 87 
44 30 69 36 58 61 21 18 90 
30 51 69 28 21 75 51 82 137 
51 41 82 81 34 89 34 61 89 
36 61 34 89 61 121 107 45 73 
73 28 93 82 41 74 41 54 74 
54 50 80 50 34 81 74 54 79 
80 85 54 79 54 85 70 14 66 
43 70 114 66 14 63 14 16 63 
46 114 110 63 16 110 23 59 52 
88 132 177 84 74 88 121 111 125 
89 121 125 111 107 128 91 107 111 
73 93 107 93 75 154 84 126 104 
84 104 100 137 82 134 82 100 134 
100 82 84 88 74 132 80 132 113 
132 80 139 80 50 139 50 81 139 
81 66 139 114 89 129 70 89 114 
70 81 89 70 66 81 131 100 104 
134 100 131 132 97 123 74 97 132 
74 79 97 139 110 151 139 63 110 
139 66 63 79 94 144 97 144 123 
97 79 144 85 78 79 78 94 79 
82 74 84 137 134 171 128 107 93 
125 111 128 89 125 129 88 137 146 
153 121 206 134 131 157 131 104 203 
134 157 167 110 114 129 110 129 151 
132 123 113 104 146 203 134 167 171 
171 167 199 129 125 175 151 129 175 
177 139 151 132 139 177 126 146 104 
137 171 146 93 154 128 128 154 184 
154 152 184 125 128 184 178 125 184 
175 125 178 177 151 175 126 88 146 
90 91 152 75 90 152 154 75 152 
111 121 91 91 121 153 91 153 152 
152 153 178 72 42 156 122 83 163 
58 65 77 65 72 77 98 103 155 
103 115 124 103 96 115 96 103 98 
83 99 106 83 69 99 135 77 145 
135 58 77 69 87 99 102 106 117 
121 135 206 61 58 135 102 117 127 
127 51 102 87 51 127 106 102 130 
102 88 130 102 137 88 51 137 102 
61 135 121 45 107 91 90 45 91 
75 21 90 93 28 75 84 88 126 
122 69 83 19 24 32 44 17 30 
36 19 32 11 45 18 30 20 51 
17 20 30 29 36 34 29 19 36 
90 18 45 9 73 45 28 13 21 
9 28 73 20 41 51 29 54 41 
20 29 41 20 19 29 29 50 54 
50 29 34 38 31 22 22 33 56 
56 33 26 25 31 38 11 9 45 
10 14 70 43 10 70 33 25 26 
31 33 22 220 216 204 78 22 86 
22 78 85 122 59 69 72 65 53 
53 42 72 49 39 53 53 65 49 
39 42 53 37 52 64 55 37 64 
42 95 108 42 40 95 48 67 57 
48 37 55 48 55 67 95 68 76 
95 35 68 68 57 71 57 105 71 
60 38 101 38 22 101 60 101 109 
86 62 116 62 60 109 116 62 109 
116 109 143 101 22 85 86 144 94 
144 86 116 78 86 94 85 80 113 
199 216 220 217 214 216 214 204 216 
214 159 204 119 105 142 187 119 142 
76 119 187 142 133 189 142 105 133 
187 142 189 150 76 187 67 140 133 
133 140 189 150 187 195 189 140 179 
179 156 195 195 108 150 156 108 195 
170 188 196 160 211 197 170 164 188 
164 160 197 164 170 160 168 164 197 
164 168 188 168 197 201 140 162 179 
92 166 162 140 92 162 162 166 191 
156 162 191 162 156 179 165 217 199 
131 203 204 217 138 214 156 42 108 
92 112 166 113 123 143 167 165 199 
157 158 167 167 158 165 157 131 204 
143 123 144 101 113 143 165 138 217 
165 158 138 157 204 159 159 158 157 
109 101 143 138 158 159 159 214 138 
250 237 251 71 105 119 76 71 119 
68 71 76 57 67 105 105 67 133 
150 95 76 108 95 150 55 64 67 
64 140 67 64 92 140 52 112 92 
52 92 64 52 122 112 72 156 120 
77 72 120 85 113 101 144 116 143 
235 206 244 206 182 244 178 235 226 
199 217 216 203 146 220 203 220 204 
171 220 146 171 199 220 148 185 234 
207 148 234 207 234 205 176 207 205 
240 176 205 178 226 175 175 226 209 
209 177 175 186 177 209 185 117 229 
234 185 229 212 219 229 229 219 239 
148 207 180 180 176 232 239 240 205 
176 240 232 232 240 239 
POINT_DATA 252
SCALARS k float
LOOKUP_TABLE default
0.839723 1.60573 1.7036 1.42813 0.231071 0.326504 0.229706 0.35525 0.280392 
1.67945 -1.31891 0.975273 0.412268 1.19986 0.546721 2.12897 -0.570623 0.291466 
0.26136 0.141073 0.355959 0.303522 -0.75815 0.218944 0.204801 1.88824 0.880031 
0.315424 0.753102 0.189431 0.313657 1.039 0.104656 2.10254 0.182462 0.394231 
0.101739 0.404326 0.0644849 0.159273 0.188336 0.20103 0.268308 0.223175 0.275691 
-1.16135 0.276151 0.0492235 0.796778 -0.896317 0.0729012 -0.894177 -1.73845 -0.565615 
-0.405233 0.457667 0.227253 0.480245 0.276901 0.220894 0.20705 0.182832 0.311541 
-0.0854019 0.463989 0.109625 -0.969047 0.40731 0.483771 -0.577353 -1.2187 0.373979 
-1.40622 0.0512679 -1.80965 0.507161 0.653002 -0.898795 0.353675 -0.877685 -1.70517 
-1.03975 -0.749516 -1.90801 -1.01296 -1.18073 -0.26627 -0.809389 -1.46805 -1.63333 
-1.01489 -0.94007 -0.948737 0.630608 0.19324 0.629996 2.16261 0.163497 0.24255 
-0.925765 -0.309576 -0.0937013 -1.62163 0.480507 -0.759749 0.250878 -0.942465 0.0540466 
0.532817 0.144474 1.07794 -0.904065 -0.903456 0.224397 0.42288 2.32456 0.179095 
0.169958 -1.7361 0.19541 -0.996281 -1.29643 -0.735927 0.608388 0.470542 -1.3059 
0.305741 -0.506109 0.32678 -1.15994 0.0571275 0.0726061 -1.81483 0.153612 0.10414 
-0.802263 0.387186 -1.50574 2.93311 -0.855435 0.308983 -0.393577 0.129822 0.334782 
0.193041 -1.82502 -0.0933509 0.134781 -0.0712459 -0.0616286 0.488315 -0.162491 -0.0598564 
-1.55854 0.504046 -0.25081 -2.01752 -0.79195 0.45701 1.31921 0.660756 0.546596 
-0.696673 -0.0165731 0.0580316 0.0464181 0.104582 -0.482134 -1.26763 0.155055 0.292016 
0.402336 -1.052 0.113664 0.134275 0.230508 1.54744 0.209894 -0.992605 0.280722 
-0.618193 -0.725591 -0.134761 0.30685 0.752721 0.324479 0.0629082 0.37155 -0.591598 
0.280519 -1.49756 0.105347 2.56939 0.916755 0.012449 0.486018 -0.535823 0.857082 
0.0740563 -0.0907997 1.819 -0.498705 0.125106 0.346247 0.482857 0.824488 -1.1989 
-0.176675 0.91582 0.0820636 -0.801381 0.300328 -0.059027 0.132561 1.02458 -0.119098 
0.266027 0.531245 2.86045 -0.168953 0.362782 0.158357 0.941969 0.372946 0.242971 
0.24582 0.0844301 0.281741 0.0899644 0.425492 -1.45626 -0.863463 0.829843 0.0222646 
0.157987 -0.883552 -0.0779936 1.12017 -1.38661 0.437336 3.07186 0.150837 0.266118 
0.664009 0.529498 0.372285 0.326476 -0.926858 0.453607 0.325338 1.14818 0.379449 

FIELD FieldData 7
h 1 252 float
-1.90733 1.09306 -1.6924 -4.38049 1.65016 6.82849 -0.91096 -0.190371 1.72525 
-1.82131 -1.10113 -1.35726 3.40444 4.58379 -0.294219 -0.681134 2.5854 2.04464 
-0.225257 1.54802 1.35352 -0.208656 0.0509352 1.53268 1.75187 1.26364 3.32114 
1.18081 3.19136 1.20651 1.07531 -0.87422 1.262 1.18793 0.629734 2.06204 
0.829727 0.0278351 2.3204 1.45194 0.835168 0.848236 0.515747 -1.88131 1.14097 
-3.5485 1.56419 2.39758 0.674845 0.732697 0.685911 0.604272 0.0949426 0.55115 
0.768736 -0.868224 0.24243 6.30441 0.215585 0.501998 0.0653173 0.172537 5.81057 
0.97325 2.75012 0.923152 -2.18035 4.46292 2.91384 -0.112664 -2.79217 12.1196 
-0.23251 -0.805997 -0.74516 4.63299 15.2076 -0.387936 0.0898218 -0.487378 -0.340761 
-0.43775 0.439285 3.33039 1.23247 -0.522425 0.488408 -0.0811094 -0.358235 -0.283047 
-2.04858 -3.29583 -0.433592 2.05835 -0.63269 0.486676 3.02506 1.26487 -0.630542 
0.171178 0.298639 0.710051 -0.731857 -2.0647 0.525448 3.1953 -0.618137 -1.99095 
0.45046 0.354074 1.83269 -1.13602 -0.25731 0.351235 1.57326 1.56937 1.6021 
-0.362883 -0.10212 1.82072 0.378465 -0.6049 0.299204 0.163569 0.549547 0.941026 
-0.554756 -0.115737 1.89987 1.15182 0.00402045 -0.14863 -0.121375 0.214956 0.582917 
-0.721262 0.247039 0.485768 0.968827 0.807078 0.218548 -0.397791 0.555864 0.485381 
3.85026 -0.664452 -0.214198 2.69092 0.218406 5.07407 11.2952 0.757865 0.939046 
0.832312 3.01252 -1.142 -0.319728 0.0614222 0.874721 1.88822 -0.336713 2.43795 
-0.078162 -0.575141 -0.680653 -0.544462 0.315982 0.419572 -0.826239 -1.02204 -0.695727 
1.00261 1.63659 2.18862 0.396913 1.0855 1.25512 0.519328 1.20931 0.252745 
1.23513 -0.217091 -0.0243583 -1.06428 1.88317 0.539659 0.401715 0.298195 0.945271 
0.922281 -1.832 0.357613 2.46591 -3.99681 1.67907 -0.0415218 0.162977 1.06134 
0.575846 2.27837 2.35615 0.658349 0.309872 -0.143117 4.47725 2.51586 1.60884 
0.450217 0.610671 0.726991 0.687778 1.13429 0.577045 0.645143 1.26751 3.22053 
0.767343 1.08268 0.897433 2.41862 0.0776015 -0.0704349 -0.425741 -0.0211277 0.688577 
-7.65492 1.09038 -0.308946 0.912197 0.45235 0.504403 0.269745 3.10909 0.647021 
1.25358 0.916627 0.417759 -2.63592 0.325919 0.193444 2.51448 1.51151 1.41362 
0.584213 1.65947 2.60329 9.17182 0.112426 1.42948 0.15406 2.48528 0.226792 

kmin 1 252 float
-0.312912 4.1649 -0.467698 -0.961939 8.44568 12.0475 0.0248971 0.948934 4.04441 
-0.788966 1.18693 0.0148364 6.26223 8.58506 3.13603 1.12963 4.42672 3.08512 
0.845327 2.69274 2.17911 1.04692 1.42805 2.28878 2.79498 3.85929 6.11149 
2.74419 7.42774 2.18444 1.38552 0.226422 2.09264 3.98287 1.70213 4.73381 
1.95989 0.994424 3.93535 2.99256 2.38962 1.45277 1.34378 -0.471639 1.53549 
3.43739 3.27251 5.24032 2.24679 1.62962 3.33706 0.895528 0.653398 1.887 
1.78652 1.77138 1.2301 11.967 0.985301 2.01855 1.8517 0.735722 10.196 
1.52086 6.7078 1.78882 -0.990162 8.07893 5.70453 1.98762 0.607446 13.6772 
0.929652 -0.177491 1.52451 7.62005 28.5794 -0.115431 1.40944 0.251178 0.480475 
0.346723 0.780807 7.64516 2.92228 -0.191234 3.0867 0.20813 0.168846 1.45862 
1.18705 -0.2186 0.116995 4.70563 -0.159864 1.48291 6.77202 5.40372 1.16786 
1.737 0.801058 1.20536 -0.234828 -0.755273 2.82921 6.32763 -0.124954 -1.12097 
1.77766 2.52094 2.97605 -0.830711 0.679083 1.15064 2.66249 3.37426 2.5386 
0.154535 0.657471 3.5595 0.951381 -0.00650262 2.0549 1.23204 2.65838 1.18826 
0.0559328 0.805649 2.39843 2.36156 0.582706 0.716915 0.591807 0.730333 1.33809 
-0.37404 1.98863 2.54558 2.45304 1.2048 1.13979 1.19651 1.64126 2.16999 
8.34632 -0.39609 0.41659 5.51569 0.682214 11.2426 21.5019 1.86938 1.71446 
1.37304 3.24267 0.0723849 0.0556921 1.1429 3.73608 3.96334 0.123274 4.70173 
0.755974 -0.346185 -0.215177 0.394131 1.27297 1.41796 -0.189052 0.869356 1.24528 
3.76934 5.42104 5.23474 0.908173 2.16818 3.89791 1.3474 2.46858 0.976618 
3.73918 0.229664 2.1978 -0.283604 2.86728 1.28672 1.27604 0.96981 2.04325 
2.09532 -0.586459 1.07322 5.37846 -2.04478 3.5518 0.649367 3.27463 2.83591 
1.46115 5.5421 5.07919 1.16879 0.924736 1.07652 10.8415 5.72095 4.67889 
1.97324 1.16391 1.4908 1.38598 2.44953 1.70468 1.40992 2.39189 6.94513 
1.99369 2.30666 3.79459 6.01796 0.832234 0.346744 0.378206 0.988356 1.9106 
-1.89677 2.10925 0.0739584 1.17852 0.981547 1.02542 0.460877 7.97103 2.03237 
2.39322 1.64208 1.27295 -0.291513 1.54198 0.776303 5.61957 2.09145 2.47939 
1.20437 2.92763 8.83144 16.4277 2.74829 3.56896 1.72687 3.64483 1.50626 

kmax 1 252 float
-3.50175 -1.97877 -2.91711 -7.79905 -5.14537 1.60951 -1.84682 -1.32967 -0.593915 
-2.85366 -3.38918 -2.72935 0.546653 0.582517 -3.72447 -2.4919 0.744083 1.00416 
-1.29584 0.403289 0.527939 -1.46424 -1.32618 0.776572 0.708771 -1.33201 0.530792 
-0.382573 -1.04502 0.228572 0.765104 -1.97486 0.431353 -1.60702 -0.442661 -0.609729 
-0.300437 -0.938753 0.705441 -0.0886825 -0.719282 0.243704 -0.312281 -3.29098 0.746453 
-10.5344 -0.144121 -0.445167 -0.897106 -0.16423 -1.96524 0.313017 -0.463513 -0.784703 
-0.249053 -3.50783 -0.745238 0.641823 -0.554131 -1.01455 -1.72106 -0.390648 1.42519 
0.425641 -1.20755 0.0574814 -3.37054 0.846907 0.123152 -2.21295 -6.19179 10.562 
-1.39467 -1.4345 -3.01483 1.64593 1.83585 -0.660441 -1.2298 -1.22593 -1.162 
-1.22222 0.0977625 -0.984367 -0.457339 -0.853615 -2.10989 -0.370349 -0.885316 -2.02471 
-5.28422 -6.37305 -0.98418 -0.588934 -1.10552 -0.509561 -0.721903 -2.87397 -2.42894 
-1.39465 -0.20378 0.214745 -1.22889 -3.37413 -1.77831 0.0629703 -1.11132 -2.86093 
-0.876736 -1.81279 0.689327 -1.44133 -1.1937 -0.44817 0.484023 -0.235525 0.665602 
-0.8803 -0.86171 0.0819535 -0.194451 -1.2033 -1.4565 -0.904907 -1.55928 0.693794 
-1.16544 -1.03712 1.40131 -0.0579219 -0.574665 -1.01418 -0.834556 -0.300421 -0.17226 
-1.06848 -1.49456 -1.57405 -0.515383 0.409356 -0.702693 -1.99209 -0.529536 -1.19923 
-0.6458 -0.932814 -0.844985 -0.133858 -0.245402 -1.09447 1.08858 -0.353649 0.16363 
0.291583 2.78236 -2.35639 -0.695147 -1.02005 -1.98664 -0.186899 -0.796699 0.174167 
-0.912298 -0.804096 -1.14613 -1.48305 -0.641003 -0.57882 -1.46343 -2.91344 -2.63673 
-1.76412 -2.14785 -0.857489 -0.114347 0.00282742 -1.38766 -0.308747 -0.0499737 -0.471127 
-1.26891 -0.663845 -2.24651 -1.84496 0.899066 -0.207406 -0.472607 -0.37342 -0.152703 
-0.250755 -3.07754 -0.357994 -0.446647 -5.94884 -0.193661 -0.732411 -2.94868 -0.713225 
-0.309457 -0.985356 -0.366892 0.147908 -0.304991 -1.36275 -1.88701 -0.689228 -1.46122 
-1.07281 0.0574327 -0.0368206 -0.0104253 -0.180962 -0.550588 -0.11963 0.143128 -0.504068 
-0.459002 -0.141289 -1.99972 -1.18071 -0.677031 -0.487614 -1.22969 -1.03061 -0.53345 
-13.4131 0.0715113 -0.69185 0.645871 -0.0768471 -0.0166169 0.0786131 -1.75285 -0.738324 
0.113936 0.191175 -0.437432 -4.98033 -0.890141 -0.389414 -0.590619 0.931573 0.347845 
-0.0359455 0.391311 -3.62486 1.91595 -2.52344 -0.710007 -1.41875 1.32574 -1.05267 

hks 16 252 double
0.83999495441 0.84476456452 0.84924999335 0.85345445635 0.85738204706 0.86103754886 0.86442625541 0.86755380329 0.87042601992 
0.8730487884 0.87542793086 0.87756911041 0.87947775176 0.88115897965 0.88261757401 0.88385794021 0.85211126888 0.85632383139 
0.86030006889 0.8640390926 0.86754101127 0.87080679734 0.8738381508 0.87663736418 0.87920719201 0.88155072725 0.88367128698 
0.88557230892 0.88725726004 0.88872955786 0.88999250465 0.89104923441 0.85654397451 0.86112362254 0.8654003675 0.86938045464 
0.87307087138 0.87647913406 0.8796130885 0.88248072796 0.88509003119 0.88744882199 0.88956465131 0.89144470156 0.89309571275 
0.89452392887 0.89573506311 0.89673427974 0.8618589355 0.86611020516 0.87008375007 0.87378460513 0.8772184208 0.88039129108 
0.88330959244 0.88597983623 0.88840853662 0.89060209528 0.89256670337 0.894308261 0.89583231365 0.89714400467 0.89824804281 
0.89914868323 0.75674817558 0.76243278993 0.76789227774 0.77311972955 0.77810952236 0.78285723111 0.78735952976 0.79161408562 
0.79561945033 0.79937495051 0.80288058086 0.80613690188 0.80914494402 0.81190611958 0.81442214335 0.81669496226 0.77430705209 
0.78009473871 0.78562430581 0.79089134418 0.79589285299 0.80062708973 0.80509341488 0.80929213598 0.81322435538 0.8168918253 
0.82029681292 0.8234419777 0.82633026213 0.82896479687 0.8313488201 0.83348561095 0.69899104936 0.7055771949 0.71191776226 
0.71800488327 0.72383236547 0.72939553651 0.73469108026 0.73971687068 0.74447180856 0.74895566546 0.75316893819 0.7571127164 
0.76078856474 0.76419842031 0.76734450553 0.77022925568 0.69231818826 0.69908355299 0.7055903572 0.71183267222 0.71780594958 
0.7235068868 0.72893328913 0.73408393151 0.73895842465 0.74355708835 0.74788083432 0.75193106026 0.75570955605 0.75921842251 
0.7624600024 0.76543682318 0.68926656408 0.69547858899 0.70151892623 0.70737342866 0.71302944134 0.71847578804 0.72370273536 
0.72870193776 0.73346636715 0.73799023054 0.74226887945 0.74629871403 0.7500770851 0.75360219653 0.75687301014 0.75988915477 
0.76917836293 0.77453281175 0.77967073766 0.78459506189 0.78930934634 0.79381761423 0.79812418016 0.80223349312 0.80614999533 
0.80987799919 0.8134215836 0.8167845104 0.81997016092 0.82298149217 0.82582101168 0.82849076946 0.48330273011 0.48900969774 
0.49462116646 0.50012630898 0.50551489711 0.51077730975 0.51590453507 0.52088816776 0.52572040296 0.53039402764 0.53490241053 
0.53923949112 0.54339976836 0.54737828915 0.55117063706 0.55477292084 0.77501869994 0.77940734228 0.78363832954 0.78771289992 
0.79163279447 0.79540010518 0.79901713018 0.80248623924 0.80580975279 0.80898983656 0.81202841343 0.81492709339 0.81768712189 
0.82030934622 0.82279419915 0.82514169872 0.56745317027 0.57406236611 0.58052937212 0.58684033262 0.59298251262 0.59894430323 
0.60471521168 0.61028583866 0.61564784497 0.62079391011 0.62571768476 0.63041373926 0.63487750965 0.63910524289 0.64309394221 
0.64684131365 0.83632575004 0.83971933377 0.84300408597 0.8461780328 0.84923975779 0.85218831204 0.85502311949 0.85774388001 
0.86035047333 0.86284286645 0.8652210271 0.86748484537 0.86963406542 0.8716682287 0.87358662976 0.87538828526 0.36893212178 
0.36916531095 0.36950644917 0.36995049896 0.37049178871 0.37112409231 0.37184070912 0.3726345427 0.37349817712 0.37442394976 
0.37540401996 0.3764304331 0.37749517978 0.37859025013 0.37970768333 0.38083961258 0.81984792566 0.82387060547 0.82768851569 
0.83131052277 0.83474561602 0.83800270342 0.84109042605 0.84401699393 0.84679004571 0.84941653324 0.85190263188 0.85425367624 
0.85647412074 0.85856752367 0.86053655309 0.86238301248 0.4384803493 0.44340022346 0.44825444925 0.45303328293 0.45772743832 
0.46232810095 0.46682693599 0.47121609114 0.47548819559 0.47963635599 0.48365415035 0.4875356207 0.49127526512 0.49486802951 
0.49830929962 0.50159489324 0.3620768218 0.3551022156 0.34806858476 0.34098343264 0.33385408754 0.32668771456 0.31949132917 
0.31227181123 0.30503591818 0.29779029648 0.29054149082 0.28329595068 0.27606003424 0.26884000987 0.26164205553 0.25447225675 
0.71305934596 0.71846568121 0.72371853262 0.72881461408 0.7337512622 0.73852634338 0.74313816244 0.74758537542 0.75186690897 
0.75598188768 0.75992957104 0.76370930052 0.76732045731 0.77076243078 0.77403459723 0.77713630833 0.39759934172 0.39069684292 
0.38373608409 0.37672383583 0.36966566749 0.3625660318 0.3554283743 0.34825526295 0.34104853266 0.33380943998 0.32653882284 
0.31923726086 0.31190523202 0.30454326187 0.29715206212 0.28973265591 0.28818429005 0.28146366985 0.2748139325 0.26823944418 
0.26174373547 0.25532956841 0.24899901028 0.24275351179 0.23659398751 0.23052089659 0.22453432223 0.21863404847 0.21281963347 
0.20709047827 0.2014458906 0.19588514345 0.69950596859 0.70582010954 0.71194783734 0.717884781 0.72362741175 0.72917294651 
0.73451925117 0.73966474661 0.74460831983 0.74934924198 0.7538870949 0.75822170689 0.7623530984 0.76628143768 0.77000700617 
0.77353017319 0.56930208536 0.57620994234 0.58300500627 0.58967682444 0.59621574547 0.60261292249 0.60886030735 0.61495063728 
0.62087741538 0.62663488629 0.63221800827 0.63762242282 0.64284442272 0.64788091931 0.65272940967 0.65738794416 0.25476630683 
0.24955497683 0.24433423374 0.23911147256 0.23389393038 0.22868863432 0.22350235616 0.21834157431 0.21321244362 0.20812077308 
0.20307201144 0.19807124053 0.19312317575 0.1882321732 0.18340224269 0.17863706582 0.33236748929 0.32606174576 0.31978396172 
0.31353597548 0.3073187367 0.3011324171 0.29497652928 0.28885005021 0.2827515459 0.27667929431 0.27063140391 0.26460592566 
0.258600957 0.25261473634 0.24664572752 0.24069269356 0.76448204799 0.76981301142 0.77495196046 0.77990448747 0.78467640147 