# vtk DataFile Version 5.1
vtk output
ASCII
DATASET POLYDATA
POINTS 252 float
0.871519 -0.016038 0.015487 0.863743 -0.062633 -0.021669 0.822424 0.037411 -0.026856 
0.845176 -0.020055 0.041528 0.871515 -0.140675 0.039699 0.84493 -0.235459 0.08146 
0.815705 -0.046546 0.045936 0.764411 0.121654 0.001955 0.826472 -0.044464 -0.037438 
0.799277 -0.058621 -0.006519 0.864626 -0.205175 0.10952 0.817982 -0.194924 0.092411 
0.757308 0.069762 0.053688 0.702221 0.055466 -0.049047 0.742401 0.096014 -0.053898 
0.701221 0.025327 -0.014666 0.710606 0.032607 0.032428 0.602643 0.137912 0.082507 
0.577612 0.051945 -0.035889 0.637272 0.169026 0.017681 0.616808 0.070747 0.079621 
0.575277 0.028323 0.019295 0.580259 0.170584 0.04723 0.443312 0.092441 -0.082025 
0.57699 0.1617 -0.032417 0.429714 0.161496 0.010026 0.584391 0.096431 -0.05565 
0.450136 0.049622 0.073441 0.458235 0.004229 0.032042 0.482965 0.138359 0.06788 
0.472969 0.007147 -0.029914 0.381374 0.130652 -0.054516 0.442719 0.018616 -0.067746 
0.371073 0.055236 -0.094013 0.378584 -0.069962 0.031625 0.360407 -0.036067 0.075894 
0.373543 0.06038 0.081569 0.346219 0.142474 0.034977 0.378689 -0.082081 -0.00685 
0.356156 0.111603 -0.145644 0.311143 0.161179 -0.117021 0.351113 0.020419 0.135675 
0.297419 0.116269 -0.207938 0.29335 0.14762 0.079268 0.35082 0.045303 -0.156851 
0.356463 -0.058876 -0.05403 0.313152 0.111176 0.191555 0.33752 0.137933 0.144977 
0.24942 0.248885 -0.298528 0.270774 0.171332 -0.294154 0.290714 0.176659 -0.205179 
0.285335 0.165731 0.217604 0.216514 0.260873 -0.325762 0.203784 0.301124 0.306077 
0.252274 0.207067 0.178105 0.2479 0.25469 0.32148 0.223876 0.182138 -0.172072 
0.294555 0.011798 -0.144208 0.249245 0.131189 0.244721 0.281759 0.148318 -0.079012 
0.223844 0.162637 0.137119 0.215512 0.187412 0.33647 0.254758 0.151655 0.083835 
0.196663 0.207939 0.37006 0.220898 0.147817 -0.323778 0.31111 -0.094326 -0.082256 
0.268121 0.032166 0.152316 0.166104 0.239585 -0.272841 0.221711 0.102848 0.195447 
0.244505 0.089554 -0.205357 0.23135 0.177055 -0.371603 0.206874 0.116517 -0.150863 
0.141883 0.208561 -0.313952 0.230895 -0.025858 0.146826 0.192783 0.130361 -0.205314 
0.307028 -0.16857 0.028001 0.192391 0.059833 0.152759 0.216214 0.055685 -0.148305 
0.144584 0.166063 -0.301513 0.286067 -0.196113 -0.00112 0.181063 0.175816 0.295972 
0.174747 0.145458 0.191105 0.154855 0.195277 0.261048 0.188699 0.090151 0.142008 
0.169105 0.258698 0.256226 0.183351 0.062052 -0.113822 0.21511 0.133141 0.012813 
0.236732 0.103041 -0.067265 0.140967 0.183598 0.328228 0.213006 0.086736 0.065392 
0.294796 -0.109435 0.093204 0.169338 0.013497 0.087636 0.118935 0.242999 0.29772 
0.217215 -0.02318 -0.141493 0.168736 -0.007754 -0.091489 0.206752 -0.074465 0.104351 
0.257888 -0.153032 -0.059045 0.230776 -0.11006 -0.082492 0.250869 -0.151026 0.08547 
0.097757 0.08427 0.044154 0.101002 0.01312 -0.093392 0.095673 -0.019997 0.126587 
0.148903 -0.2299 0.101666 0.076169 -0.089323 -0.143469 0.150245 -0.110343 0.129491 
0.062941 0.073362 -0.042277 0.057518 -0.047198 0.146382 0.165071 -0.310045 0.001152 
0.021837 0.016389 0.10265 0.052197 -0.059497 -0.133457 0.165136 -0.311972 0.037967 
0.149216 -0.221339 -0.084131 0.024067 0.073987 0.033449 0.012374 0.048042 -0.067799 
0.035641 -0.289281 -0.07492 -0.069089 0.034602 -0.019389 0.032433 -0.286294 0.111732 
0.059921 -0.370729 0.035799 -0.087667 -0.052428 -0.090287 0.091155 -0.121992 0.146881 
-0.063465 0.00622 0.075725 0.046039 -0.352401 -0.013128 -0.136541 0.019997 -0.003917 
-0.109958 -0.212974 0.130561 -0.140557 0.085459 -0.369672 -0.034316 -0.131855 -0.126296 
-0.03795 -0.37378 0.043054 -0.049985 -0.117544 0.13991 -0.169832 0.137561 -0.367959 
-0.142383 -0.010995 -0.061756 -0.145275 0.060208 -0.435907 -0.21867 0.156587 -0.385909 
-0.148046 0.100605 -0.436959 -0.128925 -0.025113 0.162021 -0.163038 -0.02259 -0.125661 
-0.136659 -0.011554 0.074638 -0.138292 -0.046904 -0.259125 -0.129082 -0.061385 -0.165611 
-0.11954 -0.054147 0.102541 -0.030985 -0.371824 -0.000382 -0.161843 -0.054289 0.124944 
-0.284799 0.33831 -0.002436 -0.167279 0.023687 -0.248646 -0.052998 -0.288749 -0.082291 
-0.143359 -0.096603 -0.232684 -0.18134 -0.054909 -0.316549 -0.266151 0.256093 -0.011013 
-0.134475 -0.12339 -0.102641 -0.163602 -0.137551 0.118452 -0.285963 0.296432 -0.053001 
-0.225147 0.030838 -0.439515 -0.142495 -0.356025 0.006755 -0.133894 -0.11927 -0.142056 
-0.153656 -0.058095 0.190125 -0.20614 -0.014703 -0.170013 -0.131735 -0.217835 -0.102628 
-0.22539 0.031093 0.12702 -0.237043 -0.042234 0.048254 -0.223381 0.112672 -0.342918 
-0.235115 0.069235 -0.455591 -0.221838 -0.031333 -0.098642 -0.276635 0.277197 0.028509 
-0.378948 0.383541 0.033998 -0.181589 0.015907 0.157963 -0.233657 -0.058267 -0.300899 
-0.235636 0.01316 -0.227368 -0.3864 0.381788 -0.017926 -0.367802 0.270133 -0.028891 
-0.264877 0.126964 -0.371614 -0.073984 -0.296402 0.108042 -0.260292 0.03019 -0.336299 
-0.286246 0.089744 -0.412099 -0.25278 0.040955 -0.39778 -0.160144 -0.337494 0.045983 
-0.271644 -0.025389 -0.260456 -0.202601 -0.118308 -0.206826 -0.384951 0.261675 0.051445 
-0.255345 0.044057 0.240514 -0.239369 -0.025281 0.094852 -0.221999 -0.248876 0.100419 
-0.200592 -0.176274 0.125824 -0.212871 -0.053976 0.203131 -0.356856 0.180732 0.311994 
-0.239666 -0.037019 -0.001194 -0.336868 0.09483 0.318774 -0.211994 -0.174939 -0.105456 
-0.281126 0.072256 0.203188 -0.317433 -0.098791 0.091162 -0.365248 0.179118 0.259532 
-0.314967 -0.097735 -0.066731 -0.397133 0.315206 -0.057984 -0.16849 -0.277824 -0.070095 
-0.269135 -0.083885 0.217037 -0.272425 -0.087823 -0.199496 -0.270457 -0.05817 -0.151824 
-0.284591 -0.061543 0.120788 -0.322879 0.0175 0.287719 -0.302469 -0.203195 -0.113818 
-0.534546 0.348669 -0.005198 -0.418746 0.180456 0.238154 -0.308669 -0.072147 0.179794 
-0.393379 0.205666 0.292193 -0.300568 -0.147177 0.178226 -0.250756 -0.316833 0.007917 
-0.384489 0.329274 0.06122 -0.397736 0.118819 0.357903 -0.322728 0.033914 0.162552 
-0.273595 -0.265829 -0.051954 -0.504659 0.324526 -0.040487 -0.416323 0.0735 0.309208 
-0.285505 -0.227145 0.122529 -0.32693 -0.134454 -0.123253 -0.334638 -0.053967 0.019206 
-0.360421 -0.007878 0.255959 -0.379949 -0.019116 0.219279 -0.476157 0.27144 0.020378 
-0.425437 0.083827 0.246938 -0.474291 0.102592 0.327361 -0.348825 -0.191681 -0.079409 
-0.328399 -0.23187 0.065188 -0.446272 -0.048033 0.064771 -0.472619 0.319813 0.045234 
-0.32915 -0.273971 -0.000175 -0.33872 -0.166272 0.10767 -0.269368 -0.294399 0.044963 
-0.474456 0.12502 0.244846 -0.550111 0.331102 0.017121 -0.385725 -0.166271 0.093816 
-0.487846 0.287038 -0.03609 -0.452479 -0.01866 0.011283 -0.414383 -0.254829 0.014885 
-0.559898 0.147071 -0.051532 -0.519029 0.223464 -0.004483 -0.531195 0.029964 -0.036675 
-0.4637 -0.034938 -0.040083 -0.61897 0.236099 0.003748 -0.534213 0.038293 0.010623 
-0.551457 0.267584 0.037829 -0.57538 0.008415 -0.071928 -0.570164 0.129691 0.0002 
-0.600268 0.121141 -0.080003 -0.540789 -0.1271 0.035691 -0.513461 -0.15067 0.002509 
-0.611005 0.214977 -0.052054 -0.512234 -0.091673 0.072754 -0.480961 -0.1075 -0.058123 
-0.582582 0.002823 0.047401 -0.62748 0.12838 0.007512 -0.609225 -0.017458 -0.05547 
-0.653205 0.136948 -0.026714 -0.635492 0.128941 -0.065679 -0.636766 -0.011811 -0.003122 

POLYGONS 501 1500
OFFSETS vtktypeint64
0 3 6 9 12 15 18 21 24 
27 30 33 36 39 42 45 48 51 
54 57 60 63 66 69 72 75 78 
81 84 87 90 93 96 99 102 105 
108 111 114 117 120 123 126 129 132 
135 138 141 144 147 150 153 156 159 
162 165 168 171 174 177 180 183 186 
189 192 195 198 201 204 207 210 213 
216 219 222 225 228 231 234 237 240 
243 246 249 252 255 258 261 264 267 
270 273 276 279 282 285 288 291 294 
297 300 303 306 309 312 315 318 321 
324 327 330 333 336 339 342 345 348 
351 354 357 360 363 366 369 372 375 
378 381 384 387 390 393 396 399 402 
405 408 411 414 417 420 423 426 429 
432 435 438 441 444 447 450 453 456 
459 462 465 468 471 474 477 480 483 
486 489 492 495 498 501 504 507 510 
513 516 519 522 525 528 531 534 537 
540 543 546 549 552 555 558 561 564 
567 570 573 576 579 582 585 588 591 
594 597 600 603 606 609 612 615 618 
621 624 627 630 633 636 639 642 645 
648 651 654 657 660 663 666 669 672 
675 678 681 684 687 690 693 696 699 
702 705 708 711 714 717 720 723 726 
729 732 735 738 741 744 747 750 753 
756 759 762 765 768 771 774 777 780 
783 786 789 792 795 798 801 804 807 
810 813 816 819 822 825 828 831 834 
837 840 843 846 849 852 855 858 861 
864 867 870 873 876 879 882 885 888 
891 894 897 900 903 906 909 912 915 
918 921 924 927 930 933 936 939 942 
945 948 951 954 957 960 963 966 969 
972 975 978 981 984 987 990 993 996 
999 1002 1005 1008 1011 1014 1017 1020 1023 
1026 1029 1032 1035 1038 1041 1044 1047 1050 
1053 1056 1059 1062 1065 1068 1071 1074 1077 
1080 1083 1086 1089 1092 1095 1098 1101 1104 
1107 1110 1113 1116 1119 1122 1125 1128 1131 
1134 1137 1140 1143 1146 1149 1152 1155 1158 
1161 1164 1167 1170 1173 1176 1179 1182 1185 
1188 1191 1194 1197 1200 1203 1206 1209 1212 
1215 1218 1221 1224 1227 1230 1233 1236 1239 
1242 1245 1248 1251 1254 1257 1260 1263 1266 
1269 1272 1275 1278 1281 1284 1287 1290 1293 
1296 1299 1302 1305 1308 1311 1314 1317 1320 
1323 1326 1329 1332 1335 1338 1341 1344 1347 
1350 1353 1356 1359 1362 1365 1368 1371 1374 
1377 1380 1383 1386 1389 1392 1395 1398 1401 
1404 1407 1410 1413 1416 1419 1422 1425 1428 
1431 1434 1437 1440 1443 1446 1449 1452 1455 
1458 1461 1464 1467 1470 1473 1476 1479 1482 
1485 1488 1491 1494 1497 1500 
CONNECTIVITY vtktypeint64
115 129 122 31 24 23 13 18 26 
2 8 14 251 242 241 112 105 113 
112 113 115 120 115 122 212 189 234 
212 234 229 248 245 242 19 24 22 
22 24 25 25 24 31 25 31 37 
37 31 59 37 59 86 122 129 157 
129 183 157 129 160 183 212 183 189 
19 14 24 242 218 230 242 230 241 
7 14 19 218 222 230 230 222 224 
0 2 7 7 2 14 129 134 160 
129 118 134 129 115 118 115 113 118 
113 109 118 100 109 113 105 100 113 
105 94 100 87 94 105 87 85 94 
87 71 85 59 33 40 31 33 59 
238 245 248 234 245 238 250 248 251 
238 248 250 240 238 250 231 238 240 
238 233 234 243 240 250 190 149 167 
228 240 243 155 125 143 103 114 125 
111 114 103 97 111 103 125 155 147 
39 40 33 86 105 99 105 86 87 
86 59 87 248 242 251 229 233 236 
233 229 234 236 239 246 236 233 231 
236 231 239 250 251 249 251 247 249 
251 246 247 247 235 249 249 243 250 
239 247 246 231 232 239 228 231 240 
134 147 152 149 146 167 141 161 146 
149 141 146 243 249 235 198 208 243 
208 228 243 232 231 228 228 215 232 
167 215 228 190 167 228 231 233 238 
165 158 170 165 142 158 67 72 78 
72 52 70 48 49 70 48 50 49 
210 202 223 90 95 98 106 101 108 
106 108 127 127 108 120 120 138 127 
133 153 140 127 138 148 148 138 140 
140 153 148 148 153 180 180 181 202 
202 200 223 73 41 66 73 76 95 
95 76 91 91 101 95 95 101 104 
104 101 106 104 106 119 119 106 127 
123 127 148 123 148 180 210 180 202 
180 210 179 41 73 90 90 73 95 
98 95 104 123 119 127 116 119 123 
123 180 179 98 104 102 104 119 102 
102 119 116 116 123 169 52 72 67 
48 52 67 172 164 170 150 164 172 
150 145 164 130 124 145 64 78 70 
128 158 142 142 124 128 70 78 72 
52 48 70 170 168 171 168 131 171 
158 168 170 158 131 168 128 131 158 
132 131 128 124 132 128 130 145 150 
150 172 171 170 171 172 159 150 171 
130 150 159 132 130 159 132 124 130 
131 159 171 131 132 159 109 103 125 
100 94 103 57 65 93 57 44 65 
193 197 211 185 197 193 175 185 193 
175 152 185 134 118 147 137 152 144 
152 137 134 118 125 147 100 103 109 
85 93 94 57 93 77 57 77 42 
42 44 57 39 33 44 194 193 211 
137 154 134 85 77 93 71 77 85 
77 71 74 69 42 77 39 44 42 
194 154 165 160 154 194 160 134 154 
74 69 77 198 243 235 81 68 80 
68 51 58 53 84 92 209 217 216 
216 217 225 55 51 54 55 54 53 
53 54 84 84 82 92 82 80 88 
92 82 88 213 196 209 213 209 216 
51 55 58 58 61 80 81 80 82 
181 177 184 181 184 196 192 181 196 
58 80 68 192 196 213 205 184 182 
182 201 205 205 201 217 209 205 217 
55 53 63 55 63 61 53 92 63 
88 63 92 177 182 184 196 184 205 
196 205 209 58 55 61 80 61 88 
61 63 88 226 198 235 190 228 208 
166 208 198 166 190 208 166 141 190 
141 149 190 143 139 151 114 139 143 
139 114 121 114 111 121 143 151 191 
14 8 13 185 207 197 207 191 203 
191 207 185 155 191 185 155 143 191 
97 96 111 65 96 97 44 45 65 
94 97 103 114 143 125 199 216 225 
182 186 188 177 186 182 217 201 225 
201 199 225 201 188 199 182 188 201 
181 192 202 66 46 68 192 213 200 
202 192 200 153 177 181 153 133 177 
76 68 83 83 68 81 46 51 68 
46 47 51 213 214 200 214 195 200 
177 163 156 133 163 177 84 81 82 
60 81 84 84 54 60 51 47 54 
216 214 213 216 206 214 186 206 199 
186 156 206 186 177 156 199 206 216 
188 186 199 11 5 10 153 181 180 
206 195 214 73 66 76 66 68 76 
46 66 41 41 36 47 47 46 41 
200 187 223 162 141 166 162 166 198 
215 167 204 146 176 167 139 126 151 
1 4 8 141 162 204 162 198 226 
162 226 221 221 226 237 237 226 235 
161 141 204 161 204 176 204 162 221 
176 204 167 204 221 215 221 237 215 
146 161 176 232 215 237 239 232 237 
239 237 247 247 237 235 220 229 246 
229 236 246 241 246 251 220 212 229 
220 246 244 200 195 187 163 135 178 
163 140 135 138 135 140 133 140 163 
83 91 76 83 89 91 83 60 89 
81 60 83 206 178 195 156 178 206 
156 163 178 62 89 60 54 62 60 
54 43 62 47 43 54 8 5 11 
4 5 8 4 10 5 10 6 11 
3 6 10 10 0 3 4 0 10 
117 116 126 87 56 71 87 59 56 
59 40 56 50 48 56 40 50 56 
39 50 40 144 152 175 145 144 175 
136 137 144 194 174 193 174 164 193 
164 175 193 145 175 164 137 136 142 
165 174 194 142 165 154 137 142 154 
56 78 74 71 56 74 50 42 49 
50 39 42 78 56 67 56 48 67 
136 144 145 124 142 136 170 164 174 
174 165 170 124 136 145 78 69 74 
64 69 78 49 42 69 49 69 64 
70 49 64 117 126 139 121 117 139 
121 107 117 107 110 117 62 37 86 
99 105 112 157 183 212 89 62 86 
187 212 220 244 246 241 29 22 25 
29 25 37 36 37 43 47 36 43 
43 37 62 89 86 99 91 89 99 
91 99 101 99 108 101 108 99 112 
108 112 120 120 112 115 135 120 122 
120 135 138 157 135 122 135 157 178 
178 157 195 195 157 187 187 157 212 
187 220 227 244 227 220 227 244 241 
17 19 22 29 17 22 17 29 27 
29 36 27 36 29 37 223 187 227 
230 227 241 12 7 17 17 7 19 
11 9 8 1 0 4 126 173 151 
111 107 121 111 79 107 79 110 107 
79 75 110 2 1 8 2 0 1 
203 173 224 191 151 203 151 173 203 
45 79 96 38 75 79 38 34 75 
15 9 16 13 9 15 6 16 9 
8 9 13 222 203 224 203 222 207 
45 38 79 30 38 32 38 28 34 
30 28 38 15 21 18 15 16 21 
13 15 18 21 28 30 18 21 30 
96 79 111 65 45 96 32 38 45 
218 207 222 197 207 218 147 155 185 
33 45 44 33 32 45 23 32 33 
18 30 32 26 18 32 24 14 26 
14 13 26 189 211 218 218 211 197 
23 26 32 24 26 23 245 218 242 
189 218 245 234 189 245 194 211 189 
189 160 194 183 160 189 31 23 33 
93 97 94 65 97 93 152 147 185 
118 109 125 126 169 173 219 223 227 
12 17 20 12 20 16 20 17 27 
21 20 27 21 27 28 28 27 35 
27 36 35 35 36 41 210 223 219 
230 224 219 230 219 227 0 7 3 
3 7 12 6 3 12 16 20 21 
34 28 35 34 35 90 35 41 90 
169 123 179 173 179 224 224 179 210 
224 210 219 6 12 16 34 90 75 
75 90 98 102 75 98 173 169 179 
11 6 9 110 75 102 102 117 110 
117 102 116 126 116 169 
POINT_DATA 252
SCALARS k float
LOOKUP_TABLE default
0.607064 0.618956 0.176592 -0.100789 0.0960725 2.8 -0.82568 0.590991 0.185109 
-0.601902 1.89781 0.908735 -0.0772088 -0.153267 0.409609 -0.522308 -0.550162 0.379824 
-0.293808 0.218272 0.0947634 -0.294066 0.226635 0.0693586 0.188671 0.0784131 -0.162956 
-0.250647 -0.32568 -0.000218987 -0.247778 -0.346515 -0.0278298 -1.33199 -0.0784045 -0.277238 
-1.03344 -0.631621 -0.126997 0.398551 0.415713 0.21743 -0.608951 -0.539389 0.355095 
-0.223058 0.135523 0.353701 0.653323 0.00420564 -0.435603 -0.82101 1.286 1.73014 
-0.220204 0.742819 -0.252989 -0.101086 0.286955 -1.26074 -0.15737 0.0367503 -0.531386 
1.63807 0.0372012 0.108254 -0.112717 0.721201 -0.730867 -0.182292 2.11124 -0.418044 
1.07026 0.283133 -0.454462 0.0510585 -0.0565716 -0.784319 0.881471 0.0890943 -0.325779 
-0.109642 -0.477049 -0.527955 0.0928749 0.178989 -0.437404 -0.50433 1.29558 -0.174337 
-0.0084281 -0.963761 1.64812 0.45921 -1.22907 -0.534279 -0.137758 -0.378512 -0.120719 
-0.133394 0.0602251 0.0420446 0.0474762 0.310612 0.0296196 -0.138471 0.225926 0.201373 
0.0931505 0.0823898 0.245464 0.0970019 0.199182 0.223785 0.0639864 -0.239267 0.116196 
0.476833 -0.584393 0.100239 -0.138503 0.0891346 0.250268 0.00970435 0.067186 0.00296617 
0.247464 -0.00114632 0.589045 -0.444638 0.849266 1.19505 1.08803 1.8105 -0.872958 
-1.21289 -0.0933241 0.0362753 -0.304752 0.188659 -0.937781 0.792332 -0.22482 0.0943619 
0.329005 -0.0737072 1.86686 -1.11522 -0.446276 1.25151 0.468805 0.159895 0.0258126 
0.30575 -0.496785 -0.00928712 0.527489 -0.364243 -0.252918 0.832914 -0.0864953 0.969017 
0.89119 -0.828246 0.0241488 -0.140199 0.596186 -0.764502 0.751173 0.0914991 -0.471821 
1.26207 -0.0348588 0.0455294 0.043456 -0.0382812 2.00409 -0.364691 -0.664132 -0.142907 
-0.29369 -0.124004 0.677267 -0.126684 0.0709264 -0.427092 -0.400695 -0.90324 0.161108 
-0.923844 0.150591 0.0219922 -0.265554 -0.706836 -0.304839 -0.424191 0.0163517 0.196141 
0.601326 0.618638 -1.14151 1.31211 0.250823 0.113752 -0.696717 0.938192 -0.24331 
-0.0923458 0.0357039 -0.291871 0.144299 0.159423 -0.491904 -0.0647817 0.523404 -0.737709 
-0.706266 1.88362 -0.675187 -0.0550984 -0.0423101 -0.0898319 -0.144792 -0.766474 -0.114335 
1.58305 0.445007 -0.0110745 -1.00978 -0.348839 0.613955 -0.605477 -0.387217 -0.522991 
-0.349174 0.383817 -0.506705 0.0476003 -0.0609617 -0.867819 0.157151 0.205087 0.00182116 
0.193801 0.138743 -0.168298 -0.00556511 -0.193435 0.353741 0.397245 0.344496 0.618174 

FIELD FieldData 7
h 1 252 float
2.16176 1.17093 2.42397 1.19613 0.458237 -1.08007 -0.20133 0.864821 0.388162 
7.09218 0.483563 8.52382 1.93993 -0.250803 3.74603 0.735521 -1.65961 2.61108 
-0.70002 -0.0586375 -1.59712 1.8233 -0.131775 2.61899 1.01432 -0.155722 1.42866 
-1.66525 0.47365 2.38254 1.08546 1.12975 -0.731206 2.28853 1.55176 -0.518389 
1.94382 0.0888311 1.38467 3.13964 0.208958 -0.0591382 -0.413364 -0.287835 0.0768702 
-0.462168 -0.600838 1.40654 -0.541284 -0.722177 0.178238 -0.260343 3.8844 -0.204639 
-0.324957 3.0552 0.699632 0.100903 -0.654464 -0.447023 0.0824845 -0.444173 -0.229051 
21.3202 -1.1157 -0.24236 -0.211 -0.379357 -0.557496 -0.373896 0.278537 -0.899499 
12.8382 0.180874 3.37183 1.53228 1.26593 0.158186 -0.76262 0.233892 -0.9278 
-4.04285 -0.585659 -1.37011 -0.448604 -1.26788 -0.280784 -0.50136 12.6183 -0.869828 
-0.466684 2.31045 2.90925 0.43294 2.81322 -0.571352 -0.511953 -0.893663 -0.712864 
1.56139 2.96888 2.84977 -0.260951 0.49006 -0.081983 0.312708 1.7838 -0.197851 
3.13002 3.23698 2.03046 0.253123 -0.393891 1.4232 -0.572731 -0.889113 -0.185611 
1.35201 2.26776 0.248749 2.13128 -0.347414 -0.853489 0.46162 7.81636 0.859228 
2.90852 1.3831 -2.25303 -1.39225 4.04191 2.80244 4.16395 6.54997 -1.03093 
-0.648138 -2.73886 2.27432 1.44228 0.0555079 3.99641 42.1769 -1.97046 -0.456196 
0.924605 1.57625 5.30979 -0.0770437 0.23396 0.555193 0.255197 1.32125 -0.0255123 
0.883886 -1.47709 -0.229843 -1.03574 -1.94247 -2.33154 14.1544 -1.37336 -0.732163 
0.201087 -0.803961 0.380573 -1.17694 0.721092 -1.69745 3.52927 0.50035 8.70429 
3.80975 -0.727307 2.54946 4.85555 0.858024 3.9046 3.78313 -0.755538 0.908307 
0.524664 1.00975 2.37551 -1.79851 0.440556 0.227397 -1.70057 0.982599 -0.0731333 
-1.67211 0.971663 0.479099 1.4702 0.648862 -1.3904 -1.35146 1.08255 1.05906 
-0.417606 -2.67599 1.09756 7.48097 1.98659 2.68791 0.430993 1.45119 -0.614966 
0.177793 -0.0741618 0.0765712 2.47289 0.877849 -2.64504 1.23915 0.607505 -0.0868681 
5.42995 2.51109 1.1235 2.41317 1.07222 0.768739 2.08965 2.80719 2.60426 
3.42309 0.392175 0.392144 0.269559 -2.95694 4.74682 -0.704245 -6.18513 -0.553105 
-0.827673 0.703841 -0.526526 1.2235 -0.273447 0.333153 -0.230279 3.18249 0.414979 
-0.180983 -0.424815 0.100221 0.274601 -0.113884 0.0818686 10.089 -0.0290851 6.97195 

kmin 1 252 float
5.50029 3.75026 4.55854 1.79607 1.3626 -0.611206 0.662667 1.87145 2.06016 
23.6932 1.32068 20.6908 4.0941 0.841196 7.82991 4.86293 -0.283522 4.95366 
-0.268101 2.72466 -0.396798 6.28924 2.37375 5.49304 2.32284 1.93399 3.11015 
0.287484 2.3787 3.98858 3.67065 1.55403 -0.171449 5.47715 3.71683 0.655629 
5.04171 1.60595 3.24602 8.06401 2.22257 0.86097 0.0860071 1.67786 0.507646 
0.182846 0.072678 6.02964 0.0357378 0.22743 1.33996 2.01074 6.83513 0.297298 
0.405958 8.61848 1.1142 1.08975 0.237558 1.31126 0.85995 1.7881 1.36302 
22.5567 1.2231 0.419984 0.980786 0.63102 1.3952 1.10226 1.2636 0.354301 
23.2926 1.11131 5.66899 3.04063 5.45358 2.25242 1.56945 1.04524 4.99043 
1.58298 0.418158 -0.207184 0.813526 0.291633 1.28988 0.891277 28.0409 0.738975 
0.459684 5.22973 6.01031 1.50767 5.51211 0.311328 0.39663 0.5943 0.445355 
2.63832 5.73554 5.39784 0.630866 1.10061 0.962168 1.02729 3.51285 0.367852 
6.32354 6.33374 3.89415 0.721546 0.471357 2.62267 0.737859 -0.0169713 0.874964 
1.90188 4.98543 1.11059 4.97243 0.581443 -0.185464 1.46112 15.4786 1.48321 
5.63154 2.71271 -0.514446 -0.718286 9.49213 5.94436 8.69248 16.501 1.27897 
0.352293 2.1259 5.87469 3.22018 1.28186 9.3535 75.4839 -0.4468 1.1724 
2.43515 3.74436 13.099 1.29125 1.3368 1.22812 1.61564 3.55843 0.431465 
2.40757 -0.103303 1.65916 -0.710615 -1.119 -1.48114 27.5088 -1.04512 0.138454 
0.774712 0.337011 1.37857 0.492727 1.47369 0.0426205 9.90014 1.89411 18.9925 
7.96685 1.08653 4.82119 11.0782 2.34123 8.60592 10.9583 0.214749 2.168 
1.69762 2.64085 5.03809 -1.22813 1.95328 1.54771 -0.718767 3.31275 2.84739 
1.06794 1.47231 1.96812 3.01223 2.20491 -0.780118 -0.453796 2.88387 2.32954 
-0.244229 -1.56327 2.1195 12.6282 3.4425 5.28297 1.83499 3.67244 0.485503 
1.62502 0.0587424 1.63735 4.12423 2.25724 -2.29231 2.4826 1.32451 0.956474 
12.0486 5.15175 2.20053 3.84386 2.17423 1.68011 3.6226 5.75886 3.7751 
7.90692 1.23316 1.81972 1.09893 -1.0562 6.6264 0.380537 -5.32091 1.09372 
1.07555 1.6046 0.671065 1.98651 0.214049 0.837963 0.391678 4.70353 1.91807 
0.379542 0.618212 1.28184 0.656639 0.312094 1.69971 16.9304 0.500672 11.9816 

kmax 1 252 float
-1.17677 -1.4084 0.28941 0.5962 -0.446129 -1.54894 -1.06533 -0.141811 -1.28384 
-9.50881 -0.353557 -3.64315 -0.21423 -1.3428 -0.337853 -3.39189 -3.0357 0.268504 
-1.13194 -2.84194 -2.79745 -2.64264 -2.6373 -0.255058 -0.294196 -2.24543 -0.252831 
-3.61798 -1.4314 0.776504 -1.49973 0.70546 -1.29096 -0.900079 -0.61331 -1.69241 
-1.15407 -1.42829 -0.476669 -1.78474 -1.80466 -0.979247 -0.912736 -2.25353 -0.353905 
-1.10718 -1.27435 -3.21656 -1.11831 -1.67178 -0.983486 -2.53143 0.933672 -0.706576 
-1.05587 -2.50809 0.285063 -0.887947 -1.54649 -2.2053 -0.694981 -2.67644 -1.82112 
20.0837 -3.4545 -0.904704 -1.40279 -1.38973 -2.51019 -1.85005 -0.706524 -2.1533 
2.38372 -0.749568 1.07466 0.0239271 -2.92171 -1.93605 -3.09469 -0.577455 -6.84603 
-9.66868 -1.58948 -2.53303 -1.71073 -2.8274 -1.85145 -1.894 -2.80426 -2.47863 
-1.39305 -0.608832 -0.191799 -0.641787 0.11433 -1.45403 -1.42054 -2.38163 -1.87108 
0.484455 0.202227 0.301706 -1.15277 -0.120486 -1.12613 -0.401875 0.0547551 -0.763554 
-0.0635088 0.140225 0.166771 -0.215299 -1.25914 0.223734 -1.88332 -1.76126 -1.24619 
0.802135 -0.449906 -0.613094 -0.709863 -1.27627 -1.52151 -0.537876 0.15414 0.235246 
0.185494 0.0534867 -3.99162 -2.06621 -1.40832 -0.339487 -0.364586 -3.40104 -3.34083 
-1.64857 -7.60363 -1.32605 -0.335608 -1.17084 -1.36068 8.86998 -3.49411 -2.0848 
-0.585939 -0.591859 -2.4794 -1.44533 -0.868878 -0.117731 -1.10525 -0.915922 -0.48249 
-0.639802 -2.85087 -2.11884 -1.36087 -2.76594 -3.18195 0.799969 -1.70161 -1.60278 
-0.372537 -1.94493 -0.617421 -2.8466 -0.0315107 -3.43751 -2.84161 -0.893412 -1.58394 
-0.347345 -2.54115 0.27774 -1.36707 -0.62518 -0.796718 -3.39203 -1.72582 -0.351387 
-0.648296 -0.621349 -0.287062 -2.36889 -1.07217 -1.09291 -2.68237 -1.34755 -2.99365 
-4.41216 0.471015 -1.00992 -0.0718204 -0.907186 -2.00068 -2.24912 -0.718774 -0.211423 
-0.590983 -3.78871 0.0756154 2.33377 0.530679 0.0928387 -0.973005 -0.770067 -1.71543 
-1.26943 -0.207066 -1.48421 0.821546 -0.501545 -2.99777 -0.00431337 -0.109496 -1.13021 
-1.18873 -0.129566 0.0464757 0.982477 -0.0297813 -0.142629 0.556693 -0.144488 1.43342 
-1.06074 -0.448812 -1.03544 -0.559811 -4.85768 2.86724 -1.78903 -7.04934 -2.19993 
-2.7309 -0.196922 -1.72412 0.460495 -0.760944 -0.171657 -0.852236 1.66145 -1.08811 
-0.741508 -1.46784 -1.0814 -0.107438 -0.539863 -1.53598 3.24764 -0.558842 1.9623 

hks 16 252 double
0.89808159951 0.90751159083 0.91678656681 0.92588967127 0.93480613122 0.94352336355 0.95203104171 0.96032112107 0.96838782225 
0.97622757261 0.98383890713 0.99122233052 0.99838014364 1.0053162382 1.0120358645 1.0185453777 0.92520317488 0.9336539162 
0.94194121118 0.95005258403 0.9579775936 0.96570789003 0.97323723459 0.98056148214 0.98767852583 0.99458820494 1.001292177 
1.0077937568 1.0140977248 1.0202101098 1.0261379497 1.0318890371 0.75783031404 0.76712457333 0.77645431855 0.78580001032 
0.79514241835 0.80446281885 0.81374318018 0.82296633167 0.83211611125 0.84117748765 0.85013665403 0.85898109047 0.86769959407 
0.87628227653 0.88472053033 0.89300696565 0.781877011 0.79211992264 0.80241157756 0.81272057539 0.82301630906 0.83326936168 
0.84345186568 0.85353781569 0.86350332774 0.87332683946 0.88298924788 0.89247398354 0.90176702166 0.91085683327 0.91973428097 
0.92839246549 1.021521884 1.0291057137 1.0363980154 1.0433953172 1.0500966607 1.0565035578 1.0626199139 1.0684519165 
1.0740078896 1.0792981157 1.0843346255 1.089130958 1.093701895 1.0980631727 1.1022311761 1.1062226216 1.0234612988 
1.0307390368 1.0377839484 1.0445864081 1.0511392422 1.0574377881 1.0634799125 1.0692659872 1.0747988205 1.0800835448 
1.0851274606 1.0899398399 1.0945316899 1.0989154831 1.1031048581 1.1071142966 0.76095731557 0.7704477433 0.78002407407 
0.78966033829 0.79933025356 0.80900761724 0.81866669265 0.82828257705 0.83783154027 0.84729132368 0.85664139107 0.86586312459 
0.87493996147 0.88385746929 0.89260336016 0.90116744646 0.61732243072 0.6246550893 0.63226431484 0.64013550939 0.64825155638 
0.65659306342 0.66513864812 0.67386525825 0.68274851599 0.69176307612 0.70088298748 0.71008204771 0.71933414186 0.7286135568 
0.73789526478 0.74715517103 0.78557879647 0.79606236935 0.80642215925 0.81664229982 0.82670836655 0.83660746612 0.84632830228 
0.85586121644 0.86519820171 0.87433288941 0.88326050759 0.8919778119 0.90048298975 0.90877553957 0.9168561279 0.92472642763 
0.66378068321 0.67188049735 0.68016114816 0.68860379187 0.69718844004 0.7058942086 0.71469958132 0.72358268041 0.73252153661 
0.74149435094 0.75047974087 0.7594569643 0.76840611543 0.77730828856 0.78614570641 0.79490181207 0.95912432596 0.96927436834 
0.97910772957 0.98861154099 0.99777594739 1.0065941412 1.0150623536 1.0231798022 1.0309485943 1.0383735876 1.0454622073 
1.0522242236 1.0586714912 1.0648176547 1.0706778256 1.0762682364 0.90139139032 0.91063494805 0.91976736759 0.92876638609 
0.93761145496 0.9462839877 0.95476757139 0.96304813595 0.97111407596 0.97895632119 0.98656835305 0.99394616573 1.0010881724 
1.0079950584 1.0146695855 1.0211163521 0.61846262409 0.62342851101 0.62869504438 0.63426146299 0.64012395093 0.64627566638 
0.65270683264 0.65940488709 0.6663546822 0.67353873131 0.68093749056 0.68852966783 0.6962925494 0.70420233499 0.71223447251 
0.72036398494 0.51385469108 0.5183605578 0.52316028463 0.52825137494 0.53362890768 0.53928557711 0.54521177455 0.55139570951 
0.5578235665 0.56447969306 0.57134681382 0.57840626506 0.5856382439 0.5930220666 0.6005364301 0.60815967194 0.52757303208 
0.53280809788 0.5383373457 0.54415074286 0.55023647165 0.55658103793 0.56316940582 0.56998515624 0.57701066572 0.58422730157 
0.59161562884 0.59915562398 0.60682689032 0.61460887034 0.62248105022 0.6304231528 0.53730166878 0.53833555105 0.53964549158 
0.54124503747 0.54314577707 0.54535709221 0.54788594624 0.550736714 0.55391105896 0.55740786105 0.56122319735 0.56535037623 
0.56978002396 0.57450022129 0.57949668629 0.58475299839 0.59324416085 0.59650384751 0.59997357727 0.60366547886 0.60758969258 
0.61175413161 0.61616429127 0.62082311044 0.6257308876 0.63088525208 0.63628118935 0.6419111176 0.64776501174 0.65383056956 
0.66009341433 0.66653732754 0.49028365419 0.48995323747 0.48979128283 0.4898166535 0.4900477583 0.49050219461 0.49119639498 
0.49214528922 0.49336199376 0.49485753908 0.49664064491 0.49871755075 0.50109190745 0.50376473292 0.50673443254 0.50999688236 
0.44185467278 0.43935415053 0.43697841189 0.43475747925 0.43272075114 0.43089652844 0.42931155569 0.42799059011 0.42695600995 
0.42622747298 0.4258216345 0.42575193237 0.42602844459 0.42665782252 0.42764330042 0.42898477951 0.52450902103 0.52473917491 
0.52517383967 0.52582523604 0.52670482753 0.52782309773 0.52918933716 0.5308114475 0.53269577035 0.53484694678 0.53726781286 
0.53995933444 0.54292058336 0.54614875513 0.54963922662 0.55338565086 0.56128332763 0.55784234679 0.55469613741 0.5518663928 
0.54937442052 0.54724075312 0.54548472752 0.54412404799 0.54317435022 0.5426487843 0.54255763494 0.54290799561 0.54370351159 
0.54494420395 0.54662638277 0.5487426543 0.47295232004 0.47015931822 0.46739074684 0.46467856315 0.46205556188 0.45955487061 
0.4572094213 0.45505141178 0.45311177158 0.45141964736 0.45000192253 0.44888278528 0.44808335747 0.44762139515 0.44751106902 
0.44776283021 0.51610003458 0.51213530621 0.50807966681 0.50396330006 0.49981812694 0.49567747729 0.49157572729 0.48754790889 
0.48362929867 0.47985499442 0.47625948864 0.47287624871 0.46973731333 0.46687291461 0.46431113461 0.46207760384 0.43958377829 
0.43254083997 0.42553500975 0.41858706946 0.41171988059 0.4049581928 0.39832838957 0.39185817664 0.38557622074 0.37951174881 
0.37369411907 0.36815237705 0.36291480997 0.35800851319 0.35345898177 0.34928973926 0.52378629703 0.51905688195 0.51422864855 
0.50933125485 0.50439683244 0.49945962105 0.49455554789 0.48972176115 0.48499612915 0.48041671741 0.47602125748 0.47184662081 
0.46792831148 0.46429999005 0.46099304015 0.45803618717 0.51327612748 0.50490920985 0.49644674251 0.48791197523 0.47933139787 