# vtk DataFile Version 5.1
vtk output
ASCII
DATASET POLYDATA
POINTS 252 float
0.671677 0.150119 -0.125877 0.637317 0.18095 -0.038843 0.717748 0.189959 0.024774 
0.667597 0.261513 -0.010827 0.643043 0.23477 -0.156529 0.686074 0.182358 -0.106546 
0.630171 0.157467 -0.170464 0.636849 0.257887 0.089665 0.685867 0.148606 -0.211609 
0.610612 0.208165 -0.193207 0.676882 0.177051 0.013431 0.580215 0.343953 -0.124574 
0.574105 0.360267 0.038058 0.518499 0.367044 -0.044138 0.523773 0.242943 0.06282 
0.539918 0.149695 0.033809 0.486266 0.08576 0.065508 0.564558 0.197731 -0.120959 
0.519678 0.280688 -0.079371 0.465429 0.06223 0.122651 0.452822 0.180573 -0.026458 
0.42577 0.123085 0.121047 0.398862 -0.493302 -0.108343 0.440232 0.194655 0.062437 
0.35074 -0.398417 0.318856 0.426208 -0.575237 0.006704 0.434455 0.128221 0.033864 
0.349269 -0.606707 -0.082063 0.3822 -0.518868 0.013164 0.348256 0.071755 0.134875 
0.339987 -0.459915 -0.045339 0.365442 0.014582 0.069966 0.349774 0.08984 0.045738 
0.368593 -0.050748 -0.069818 0.280031 0.082596 0.008231 0.339699 -0.161432 -0.124669 
0.352374 -0.438939 -0.132979 0.32118 -0.032807 0.037784 0.278501 -0.178035 -0.042903 
0.304899 -0.673068 0.002445 0.279144 -0.383283 0.044289 0.272441 -0.044274 0.14944 
0.347107 -0.526122 -0.137164 0.317997 -0.596777 0.039098 0.310843 -0.361246 0.372058 
0.35496 -0.377207 0.320779 0.297943 -0.447102 -0.046608 0.276833 -0.181184 -0.181835 
0.2372 -0.653849 -0.081679 0.289533 0.038978 -0.066896 0.263151 0.099316 0.094993 
0.327849 -0.0572 -0.155802 0.236399 -0.443076 -0.025021 0.212748 -0.228775 0.036881 
0.214203 -0.312023 0.354236 0.275315 -0.494093 -0.112245 0.241011 -0.346785 0.397498 
0.260352 -0.133682 0.117616 0.212705 -0.502521 -0.063583 0.148148 0.262035 0.069323 
0.243398 -0.49309 -0.191688 0.209824 -0.014539 -0.213151 0.232966 -0.300933 0.063879 
0.194873 0.033306 0.225104 0.198078 -0.416528 0.028675 0.247563 -0.302998 0.401815 
0.229374 -0.078896 -0.179098 0.188635 -0.158952 0.189452 0.279054 -0.273643 -0.081559 
0.268511 -0.38565 0.123319 0.245689 -0.520098 0.060834 0.194198 -0.218496 0.121139 
0.165079 -0.161841 -0.178502 0.253469 0.067856 0.153822 0.174374 -0.5533 -0.169279 
0.187153 -0.208755 0.453683 0.169058 -0.015068 0.251055 0.164649 -0.109266 0.456206 
0.167489 -0.206832 0.405101 0.177548 -0.03036 0.370156 0.182701 -0.470643 -0.213008 
0.146521 -0.337376 0.13106 0.131512 -0.248201 0.408066 0.161734 -0.077363 0.246417 
0.147553 0.2521 -0.06342 0.159076 -0.238689 0.476209 0.147735 -0.351741 0.070697 
0.125686 0.179373 0.195447 0.150223 -0.10004 0.386771 0.138921 0.196195 -0.172049 
0.203311 0.140172 -0.125425 0.207046 -0.55357 -0.183799 0.109233 0.696707 0.031352 
0.08458 -0.149351 0.248931 0.139288 -0.157523 0.474108 0.152062 0.082353 -0.216302 
0.068042 0.125472 0.253532 0.128088 -0.007054 0.356067 0.100798 -0.106718 0.413543 
0.065403 -0.087675 0.272414 0.133568 -0.274017 -0.007457 0.08811 0.679295 0.087853 
0.062299 -0.113428 -0.241266 0.098929 -0.081969 0.351412 0.141518 -0.093789 -0.214777 
0.064774 -0.010526 0.281985 -0.006596 0.103169 -0.316817 0.080867 0.516653 0.00557 
0.128378 -0.247498 0.141982 0.013833 -0.251463 0.145013 0.050783 0.645679 0.080681 
0.054211 0.231846 0.201958 0.036831 0.303292 0.103236 0.080374 0.239947 -0.18197 
0.011962 0.024303 -0.329827 0.078018 -0.284532 0.065178 -0.008644 0.560259 0.101833 
0.037887 0.553684 0.147258 -0.082777 0.24203 -0.184709 -0.035846 0.207947 0.244518 
-0.019433 0.27321 0.170369 -0.011548 0.502323 0.17947 0.093183 -0.253782 -0.108979 
0.075645 0.485531 0.036279 0.017759 0.154805 -0.25864 -0.072087 0.342188 -0.008312 
0.016147 0.40819 -0.073576 -0.005349 0.605918 0.143186 -0.045224 0.698781 0.182645 
-0.078862 0.289326 -0.103294 -0.027237 0.487399 -0.066042 -0.040543 0.537616 0.178263 
0.079833 0.299388 -0.046041 -0.074603 -0.254116 -0.153831 -0.06208 0.53886 0.224981 
-0.078511 0.388923 -0.108347 0.024901 0.473892 0.090157 -0.073822 -0.184598 -0.226444 
0.012127 0.548755 0.0135 -0.107888 -0.281708 -0.07211 -0.034565 0.726048 0.146876 
-0.051793 -0.18696 0.218882 -0.075087 0.375301 0.104489 -0.069895 0.306358 -0.101308 
-0.099357 0.291176 0.068304 -0.09592 0.438019 0.152308 -0.021259 0.601442 0.157709 
-0.076876 -0.113015 -0.275791 -0.145525 0.223093 0.165551 -0.084996 0.059275 -0.300848 
-0.11117 0.487003 0.089334 -0.123441 0.398771 0.091845 -0.088678 0.113641 0.286875 
-0.160273 -0.27736 0.028795 -0.199801 0.021203 -0.261954 -0.214702 0.100508 0.203759 
-0.107251 0.605059 0.245043 -0.11136 0.406042 -0.050219 -0.170457 0.033731 0.270053 
-0.152816 0.303807 -0.068142 -0.128004 -0.057924 0.274486 -0.049504 0.572076 0.185172 
-0.191478 -0.152101 0.196381 -0.163583 -0.252087 -0.114901 -0.187874 0.263963 -0.100528 
-0.172757 0.601086 0.239874 -0.199226 0.27166 0.11106 -0.172851 0.144366 -0.253531 
-0.17455 0.316984 0.029896 -0.208315 -0.037264 0.237385 -0.159901 -0.182287 -0.196046 
-0.239972 0.068718 -0.213066 -0.269308 0.256958 0.044374 -0.211617 0.296883 -0.028353 
-0.234883 0.308748 -0.108363 -0.220841 -0.218351 0.102703 -0.276689 0.235858 -0.050324 
-0.25871 0.246332 -0.305097 -0.269009 0.184601 0.138345 -0.284439 0.279164 -0.255553 
-0.270872 -0.171732 -0.013833 -0.258859 0.34574 -0.07069 -0.270212 0.232797 -0.375433 
-0.309624 0.161632 -0.275792 -0.259382 0.222865 -0.116232 -0.294152 0.302476 -0.080787 
-0.268572 -0.087312 0.142452 -0.326871 0.17385 -0.057221 -0.296639 0.256495 -0.167698 
-0.244773 -0.179343 -0.101914 -0.251495 -0.060831 -0.210216 -0.327788 0.1049 -0.121548 
-0.365678 -0.207067 -0.154763 -0.28466 -0.134185 0.055494 -0.34626 -0.149111 0.024071 
-0.299092 -0.081865 -0.127173 -0.309079 -0.208535 0.050456 -0.354342 0.319344 -0.29385 
-0.303532 0.049993 0.150541 -0.349494 -0.003104 0.093866 -0.412143 -0.269684 0.092788 
-0.337182 -0.039856 -0.007762 -0.34431 -0.22795 -0.026587 -0.362027 0.035704 -0.069218 
-0.362756 -0.139251 -0.096937 -0.372102 0.02095 0.036993 -0.355144 0.130884 0.040719 
-0.353336 0.275071 -0.186876 -0.38821 0.296642 -0.355263 -0.399502 0.308556 -0.288478 
-0.396424 0.174631 -0.361352 -0.398044 0.030872 -0.128796 -0.345402 0.035168 -0.109977 
-0.425841 0.212514 -0.266962 -0.350473 0.097907 -0.084717 -0.450139 0.014205 -0.079462 
-0.502454 -0.276063 0.043526 -0.410412 -0.18598 0.101519 -0.464232 -0.146926 0.009008 
-0.471074 0.023338 -0.119089 -0.548164 -0.254112 0.095455 -0.587782 -0.204076 0.017753 
-0.508464 -0.211256 -0.130817 -0.562377 -0.02005 -0.082784 -0.555843 -0.286062 0.080984 
-0.529449 -0.087373 -0.039572 -0.61074 -0.168012 -0.108792 -0.518723 -0.286712 0.099574 
-0.504837 -0.135925 -0.080974 -0.618949 -0.248118 0.228161 -0.596853 -0.271486 0.053773 
-0.564394 -0.058731 -0.100277 -0.624037 -0.069069 0.021659 -0.590915 -0.217078 -0.066962 
-0.585244 -0.241472 0.056457 -0.572581 -0.249971 -0.06184 -0.632762 -0.246086 0.095541 
-0.62342 -0.24706 0.126196 -0.627889 -0.20263 0.006278 -0.637576 -0.206449 0.23251 
-0.601068 -0.23161 0.23494 -0.631229 -0.090719 -0.134682 -0.65474 -0.033234 -0.083549 
-0.647404 -0.262512 0.024603 -0.68861 -0.172813 0.180316 -0.719855 -0.148709 -0.101056 
-0.698196 -0.121708 0.003613 -0.694063 -0.159262 0.239656 -0.62603 -0.243236 0.003585 
-0.707898 -0.217543 0.119562 -0.713839 -0.187696 0.126369 -0.224724 -0.235334 0.016333 

POLYGONS 501 1500
OFFSETS vtktypeint64
0 3 6 9 12 15 18 21 24 
27 30 33 36 39 42 45 48 51 
54 57 60 63 66 69 72 75 78 
81 84 87 90 93 96 99 102 105 
108 111 114 117 120 123 126 129 132 
135 138 141 144 147 150 153 156 159 
162 165 168 171 174 177 180 183 186 
189 192 195 198 201 204 207 210 213 
216 219 222 225 228 231 234 237 240 
243 246 249 252 255 258 261 264 267 
270 273 276 279 282 285 288 291 294 
297 300 303 306 309 312 315 318 321 
324 327 330 333 336 339 342 345 348 
351 354 357 360 363 366 369 372 375 
378 381 384 387 390 393 396 399 402 
405 408 411 414 417 420 423 426 429 
432 435 438 441 444 447 450 453 456 
459 462 465 468 471 474 477 480 483 
486 489 492 495 498 501 504 507 510 
513 516 519 522 525 528 531 534 537 
540 543 546 549 552 555 558 561 564 
567 570 573 576 579 582 585 588 591 
594 597 600 603 606 609 612 615 618 
621 624 627 630 633 636 639 642 645 
648 651 654 657 660 663 666 669 672 
675 678 681 684 687 690 693 696 699 
702 705 708 711 714 717 720 723 726 
729 732 735 738 741 744 747 750 753 
756 759 762 765 768 771 774 777 780 
783 786 789 792 795 798 801 804 807 
810 813 816 819 822 825 828 831 834 
837 840 843 846 849 852 855 858 861 
864 867 870 873 876 879 882 885 888 
891 894 897 900 903 906 909 912 915 
918 921 924 927 930 933 936 939 942 
945 948 951 954 957 960 963 966 969 
972 975 978 981 984 987 990 993 996 
999 1002 1005 1008 1011 1014 1017 1020 1023 
1026 1029 1032 1035 1038 1041 1044 1047 1050 
1053 1056 1059 1062 1065 1068 1071 1074 1077 
1080 1083 1086 1089 1092 1095 1098 1101 1104 
1107 1110 1113 1116 1119 1122 1125 1128 1131 
1134 1137 1140 1143 1146 1149 1152 1155 1158 
1161 1164 1167 1170 1173 1176 1179 1182 1185 
1188 1191 1194 1197 1200 1203 1206 1209 1212 
1215 1218 1221 1224 1227 1230 1233 1236 1239 
1242 1245 1248 1251 1254 1257 1260 1263 1266 
1269 1272 1275 1278 1281 1284 1287 1290 1293 
1296 1299 1302 1305 1308 1311 1314 1317 1320 
1323 1326 1329 1332 1335 1338 1341 1344 1347 
1350 1353 1356 1359 1362 1365 1368 1371 1374 
1377 1380 1383 1386 1389 1392 1395 1398 1401 
1404 1407 1410 1413 1416 1419 1422 1425 1428 
1431 1434 1437 1440 1443 1446 1449 1452 1455 
1458 1461 1464 1467 1470 1473 1476 1479 1482 
1485 1488 1491 1494 1497 1500 
CONNECTIVITY vtktypeint64
133 122 139 49 51 90 122 68 100 
90 51 61 61 104 95 122 133 137 
89 95 113 89 90 95 137 133 163 
137 170 147 137 163 170 113 124 118 
124 149 167 190 147 170 118 124 167 
167 154 171 171 154 190 154 147 190 
177 182 179 182 177 183 179 182 197 
197 182 208 210 183 213 210 213 208 
1 2 10 27 25 39 2 5 3 
25 22 28 28 22 30 27 39 48 
3 4 11 3 5 4 5 8 4 
0 5 1 0 1 17 0 17 6 
30 36 46 46 36 55 9 17 18 
9 6 17 46 55 52 52 55 58 
48 58 74 11 18 13 49 33 51 
33 35 51 51 35 47 35 38 68 
35 68 47 51 47 66 66 47 72 
47 122 72 47 68 122 55 91 60 
61 51 66 104 72 102 72 122 137 
90 61 95 95 104 102 72 137 102 
104 66 72 95 114 106 114 95 102 
102 137 147 113 95 124 95 106 124 
149 114 147 149 124 106 149 147 154 
167 149 154 182 183 210 182 210 208 
5 2 1 0 8 5 30 22 36 
22 25 27 22 27 42 8 6 9 
36 22 42 91 42 27 91 27 48 
4 9 11 11 9 18 4 8 9 
42 91 55 55 60 80 55 80 74 
58 55 74 91 48 74 91 74 80 
161 116 131 61 66 104 114 102 147 
106 114 149 8 0 6 55 36 42 
91 80 60 166 168 172 151 157 168 
151 145 150 150 157 151 131 116 150 
116 138 150 200 196 217 199 186 198 
144 166 148 144 142 151 142 145 151 
142 136 121 116 107 138 117 110 116 
117 101 110 120 144 148 120 112 144 
123 117 136 107 117 123 117 107 92 
110 107 116 110 92 107 92 101 117 
111 112 120 111 59 112 141 162 175 
141 160 162 111 87 59 93 160 141 
99 160 93 87 111 96 97 76 105 
76 63 96 96 63 87 93 88 99 
83 88 93 54 24 56 54 56 82 
24 44 56 65 45 54 56 44 65 
44 45 65 243 249 248 237 234 247 
234 236 244 234 244 247 227 229 224 
227 240 229 140 127 146 186 155 198 
198 155 178 178 155 148 148 166 178 
121 145 142 121 131 145 131 150 145 
131 121 134 121 146 161 146 116 161 
121 117 146 121 161 156 127 116 146 
127 117 116 117 128 146 140 128 117 
117 127 140 162 169 186 169 155 186 
169 158 155 152 155 158 152 148 155 
152 119 148 119 120 148 136 117 121 
160 169 162 160 158 169 111 120 119 
160 105 152 152 158 160 152 96 119 
96 111 119 99 105 160 105 96 152 
76 96 105 103 105 99 98 97 103 
103 97 105 79 76 97 88 103 99 
83 79 88 83 76 79 88 78 82 
82 56 85 78 54 82 65 54 78 
237 247 236 224 229 239 128 140 146 
131 165 161 131 134 165 121 156 134 
88 82 98 103 88 98 77 97 98 
79 77 88 77 79 97 85 94 82 
82 94 98 75 77 85 88 75 78 
85 77 94 75 88 77 65 85 56 
65 75 85 75 65 78 248 249 250 
247 244 236 134 156 165 94 77 98 
229 240 239 156 161 165 219 231 223 
222 235 233 228 222 233 211 225 231 
211 212 225 225 212 215 219 211 231 
215 219 223 212 203 215 203 214 215 
214 219 215 191 211 214 218 204 228 
187 191 214 176 184 187 184 176 185 
174 185 188 176 181 185 174 164 184 
174 184 185 173 164 174 173 174 181 
202 216 235 194 201 204 159 173 168 
159 164 173 157 135 159 135 157 130 
180 196 202 202 189 180 112 125 144 
132 143 112 143 123 125 126 123 143 
130 107 126 107 130 138 251 193 180 
107 123 126 153 175 251 153 109 175 
115 109 153 59 84 132 50 59 73 
81 109 115 73 29 50 81 108 109 
81 69 108 69 71 108 71 67 108 
71 57 67 67 57 41 37 41 57 
29 73 41 19 29 41 31 19 41 
246 242 245 232 223 242 215 223 232 
216 230 243 235 243 248 235 216 243 
233 235 248 221 233 248 221 228 233 
225 238 226 225 232 238 225 215 232 
216 224 230 217 218 221 218 228 221 
203 201 205 206 203 205 206 214 203 
206 187 214 172 187 206 172 176 187 
172 173 176 173 181 176 168 173 172 
202 200 216 194 204 218 217 194 218 
193 201 194 193 199 205 193 205 201 
168 157 159 150 130 157 138 130 150 
101 92 110 196 194 217 196 193 194 
193 186 199 144 151 168 125 142 144 
125 136 142 125 123 136 251 175 193 
175 162 186 175 186 193 59 132 112 
109 141 175 87 73 59 109 108 141 
108 93 141 63 73 87 67 93 108 
67 83 93 67 41 83 41 63 83 
83 63 76 41 73 63 45 24 54 
24 45 44 238 246 245 238 232 246 
232 242 246 236 230 237 243 230 249 
230 234 249 236 234 230 234 248 250 
249 234 250 221 248 234 224 237 230 
239 220 224 224 234 237 220 234 224 
227 220 239 220 221 234 217 221 220 
205 199 206 198 206 199 198 178 206 
178 172 206 216 227 224 216 200 227 
227 217 220 200 217 227 166 172 178 
144 168 166 240 227 239 33 38 35 
33 37 38 11 13 12 52 58 64 
132 129 143 212 201 203 188 185 207 
231 225 226 223 231 241 231 226 241 
241 226 245 226 238 245 223 241 242 
242 241 245 7 12 14 7 14 15 
15 14 21 16 15 19 15 21 19 
31 16 19 21 14 23 21 23 29 
16 31 26 19 21 29 69 62 71 
70 69 81 86 70 81 64 70 86 
29 23 32 32 31 34 29 32 50 
31 41 37 53 57 71 62 53 71 
86 81 115 32 34 50 34 31 37 
100 86 115 59 34 84 50 34 59 
139 115 153 139 153 163 163 251 189 
163 153 251 126 135 130 135 126 143 
132 113 129 135 143 129 135 129 159 
129 164 159 129 118 164 190 201 212 
201 190 195 201 195 204 195 192 204 
192 189 202 164 167 184 187 184 191 
171 190 191 191 190 212 191 212 211 
204 192 228 228 192 222 192 202 235 
222 192 235 181 174 197 174 179 197 
179 174 188 188 207 183 214 211 219 
181 197 207 197 209 207 185 181 207 
207 209 213 2 3 12 7 2 12 
10 7 15 1 10 15 69 40 62 
30 40 69 28 30 69 28 69 70 
17 15 26 15 16 26 17 26 20 
14 12 13 13 18 23 14 13 23 
18 20 23 23 20 26 23 26 32 
32 26 31 37 33 49 37 57 53 
38 37 53 68 38 53 100 68 53 
53 62 100 62 40 100 52 86 100 
40 52 100 52 64 86 37 49 34 
34 90 84 34 49 90 122 100 139 
100 115 139 84 90 89 132 84 113 
84 89 113 139 163 133 129 113 118 
170 163 189 190 189 195 170 189 190 
164 118 167 195 189 192 167 171 184 
184 171 191 183 179 188 177 179 183 
213 183 207 209 197 208 209 208 213 
25 28 43 39 25 43 10 2 7 
43 28 70 39 43 70 39 70 48 
40 30 46 58 70 64 48 70 58 
12 3 11 18 17 20 17 1 15 
40 46 52 196 180 193 196 200 202 
189 251 180 112 143 125 
POINT_DATA 252
SCALARS k float
LOOKUP_TABLE default
0.409351 -0.312919 1.84121 0.045065 -0.0721122 -0.588544 0.254795 0.941703 3.22515 
0.488584 -0.0140353 1.07405 1.21739 1.03434 -0.579957 -1.37594 0.0867736 -0.596362 
-0.060318 0.878688 0.379909 -0.00467384 0.697163 -0.486676 3.28229 1.74746 -1.19884 
0.215593 -0.378335 -0.620951 -0.320723 -0.590487 -1.54505 0.750734 -0.877093 0.317501 
2.04319 -1.0999 0.0170135 1.48481 -0.376033 -0.571074 -0.11668 0.120833 0.424147 
2.00978 -0.469022 0.62886 0.84565 -0.10975 -0.424939 0.266372 -1.04178 -1.28915 
0.17513 -1.96 0.376723 0.131352 -0.670171 0.262034 0.957356 0.0912409 -0.405522 
0.0821013 -0.412395 -0.56788 -0.0323952 0.121329 1.1791 0.392305 -0.282013 -0.84039 
-0.221821 -0.505437 0.420356 -0.245691 -1.24628 0.416822 -0.798997 0.609965 3.38526 
-0.253701 0.466069 -0.517054 0.126317 0.971004 -0.164504 0.0619387 -2.21587 0.126491 
-0.0345023 -0.17638 3.38641 -0.819965 0.548384 -0.154525 0.0557687 0.544148 -0.270791 
-0.403237 -1.96715 1.32743 -0.0660322 -0.830282 -0.0404449 -1.34466 0.59921 -0.887148 
-0.289231 -0.378016 0.114003 0.140295 0.0856556 0.292902 0.539841 -0.355232 -2.12459 
-1.82446 0.0958666 0.235514 0.152835 -0.657903 -0.113411 0.417541 -0.192166 -1.02403 
0.429123 -0.854702 2.31617 -0.627091 0.500059 -1.90994 0.115258 0.159635 0.486533 
0.528279 -0.0283378 0.0960829 0.411365 0.117152 3.95407 0.116397 -0.404433 -1.59067 
-1.75145 0.681508 -2.46566 0.165113 -0.139251 -0.122584 0.451738 -0.380964 0.290385 
0.251768 0.160097 -0.139514 1.41582 0.0217224 0.193418 -0.520066 0.171171 -2.30307 
0.15171 0.21181 -0.789907 4.62838 0.250786 0.303131 -1.11416 0.157274 0.0921837 
-0.0145487 0.212336 -1.5061 -2.36566 0.272086 -0.865049 0.6399 0.196971 -0.772507 
-0.758907 1.33261 1.98891 1.04535 -0.719558 -1.7436 -0.087617 0.113457 -0.502578 
-1.37619 0.0964351 -0.451593 0.628854 -1.72311 -1.19531 -0.960327 -0.121926 0.0179318 
0.148691 0.248436 0.63322 -0.707467 -0.0396565 -2.33248 -0.899605 0.262017 0.254748 
-0.446122 1.24592 0.726408 1.83331 0.0760884 -1.99583 1.18971 -0.881225 -0.962543 
0.0122252 0.757345 0.100499 0.185928 -2.60624 0.246635 0.596813 -0.565962 -2.6488 
-0.549883 0.995869 -1.04987 0.728653 1.25897 -2.57923 -0.793639 0.844047 0.516247 
-4.48038 0.167147 0.248744 -0.355253 2.15063 3.66025 1.30593 0.695515 0.959994 
0.580648 0.953389 2.03578 1.08756 5.06519 -1.05098 1.35612 3.98762 0.127225 

FIELD FieldData 7
h 1 252 float
-0.358273 -1.44663 6.76671 2.27281 0.79831 1.39187 1.84758 2.12479 9.04227 
0.711874 -0.141946 7.59383 6.19309 1.19138 2.26528 -0.957621 0.479962 0.260414 
-2.78699 1.26934 -5.90399 1.58296 1.53089 0.396837 0.29333 4.40647 -0.0536507 
1.99846 0.152549 0.460846 0.615169 0.436979 0.285888 2.58111 2.40317 2.87444 
-0.0148711 1.03467 -0.841705 0.686068 0.648527 0.785507 0.158507 1.41682 1.14426 
-7.4883 -3.29513 1.71203 0.533289 2.63195 0.69848 3.53753 -0.303411 0.778331 
-1.84636 -2.52303 0.359893 0.707486 2.341 1.475 1.35786 2.33899 0.650095 
1.05548 0.823362 -0.652094 2.30322 1.08193 3.82742 1.71682 0.58996 0.0474699 
1.34582 0.716849 -4.6512 -0.286296 0.91819 0.498308 -10.4808 1.03494 2.54162 
1.40866 0.637213 -0.825096 2.10863 6.27957 0.523512 1.04939 -0.0654104 2.79232 
2.72917 1.21687 -0.091234 1.75283 1.63177 2.25787 1.57423 1.93268 1.21274 
1.77515 1.43704 0.36288 2.77842 0.598383 2.37048 2.07742 2.85414 3.38257 
0.961411 0.94281 0.512568 1.4842 2.77305 1.47866 2.88402 1.53339 1.14953 
0.763627 1.99503 2.26789 2.40332 0.929827 1.55628 -0.991657 2.36424 -1.99518 
0.832342 1.54319 0.762923 1.34949 3.2341 2.00281 1.73908 1.91801 0.339427 
2.01649 -0.949292 1.62516 1.43186 2.78908 0.673299 1.49885 -2.653 0.384689 
0.864323 1.44627 2.53297 2.08249 1.37175 2.67469 2.81247 0.789304 2.1284 
1.6198 2.18098 1.45168 0.247818 2.21061 2.53885 2.59113 2.20509 0.0149272 
1.67614 2.53014 1.61406 -2.40926 1.6008 2.4993 1.59192 2.11871 1.96324 
2.04195 2.38524 3.34425 -0.392139 1.12571 1.79251 -2.31639 1.68527 -0.376548 
1.19273 2.94228 1.47834 3.60728 2.36321 1.10753 1.06953 2.61351 -3.85355 
1.90088 1.94531 2.19428 2.27127 0.739481 0.0862168 1.25701 0.0726654 0.969857 
1.69534 1.75704 2.63229 3.01305 2.04173 3.4742 0.650268 3.93122 2.21147 
0.015106 8.63031 0.598829 1.76841 -0.426562 0.359038 1.64911 2.1117 0.121459 
1.71853 0.36394 -0.446332 3.14147 -0.175327 0.318475 2.42499 1.25376 4.15317 
-7.57276 2.08183 0.118209 1.70174 -0.015127 1.64251 0.654278 -0.0510421 0.27217 
-3.56614 0.947314 6.63236 1.91835 1.87893 -1.04608 -0.585218 0.647729 1.29487 
0.804529 -2.63065 2.05821 1.0325 -1.50029 1.23081 2.74764 -0.345895 2.68995 

kmin 1 252 float
3.26492 -0.117874 11.7529 3.30959 1.83509 1.52178 8.03756 5.31536 15.5493 
4.86218 1.73065 14.2519 9.75339 4.90183 6.10465 0.404694 1.80804 2.71181 
0.947996 1.915 4.35446 3.13662 4.52678 0.555719 2.22814 9.57685 1.50971 
5.5612 1.38394 0.795937 1.19397 2.26625 4.3248 3.28501 3.41207 3.96467 
9.21629 3.29972 -0.65488 1.7387 1.39068 1.29125 1.76565 4.26206 2.53376 
-3.24558 -0.425846 2.5705 2.19285 3.39381 2.04798 5.02916 2.16017 1.86371 
1.25758 2.70115 1.56864 2.23923 5.52424 2.68715 4.81163 2.6452 1.76507 
2.46252 3.01446 1.87387 2.90729 1.43579 4.82379 2.96403 1.90371 0.493681 
1.72438 2.01498 3.02432 1.47475 2.26198 2.02595 0.827201 1.74578 7.7288 
2.31982 0.833783 -0.0241915 3.43069 9.31087 2.74442 2.48672 0.41022 3.81604 
3.93932 3.03133 1.69496 2.22883 5.80345 2.47198 2.75952 3.38503 6.38902 
2.67958 2.81985 0.868607 3.54676 3.12126 2.86366 2.90666 3.25359 6.45216 
1.42152 1.90827 2.27076 3.08775 3.81782 2.18258 3.46911 2.94399 3.90052 
4.06302 3.04286 3.7724 3.2078 4.35984 2.60114 0.851561 2.79581 -0.591974 
2.85933 3.54948 2.56071 2.34686 6.45005 5.41616 2.46122 2.96609 2.26947 
3.14817 0.578691 2.07649 3.9747 5.00361 1.80864 1.73422 1.12809 1.25906 
2.27649 3.77499 6.0288 2.80919 2.51445 3.23624 6.39153 1.51617 3.30377 
3.33511 3.33185 2.04202 0.864923 4.39976 2.78597 5.01 2.85244 0.647113 
2.21839 5.57421 2.89594 -1.60962 2.85129 3.08569 3.015 2.59652 3.79949 
3.58006 4.29857 5.70526 0.963059 2.06524 3.22629 4.11681 2.60382 0.8998 
3.27399 4.99556 5.51058 22.2631 4.10105 2.17415 2.15875 4.84691 -1.38221 
4.0965 3.18041 4.04447 3.85261 1.64434 2.92108 2.17873 1.50987 3.67758 
2.85594 3.02526 5.79307 5.56649 4.21983 4.79015 2.96038 4.90124 3.56928 
1.34706 9.46587 2.54054 4.40666 0.521894 1.33543 5.21636 4.18344 1.80681 
4.37534 4.01507 2.63744 6.6681 2.75256 2.69347 5.12282 5.64762 8.46398 
0.578584 5.91887 3.65377 4.82067 0.844297 4.42286 2.80302 3.2885 1.79851 
-2.9592 3.09177 13.5969 2.65781 4.61804 0.621295 1.54717 3.18717 3.84666 
2.57345 -0.0547234 4.12009 2.73337 -0.273726 4.30349 5.11989 1.81409 4.97128 

kmax 1 252 float
-3.98147 -2.77539 1.7805 1.23603 -0.238468 1.26196 -4.3424 -1.06578 2.53521 
-3.43843 -2.01455 0.935777 2.6328 -2.51907 -1.57409 -2.31994 -0.848119 -2.19098 
-6.52198 0.62367 -16.1624 0.0293128 -1.465 0.237955 -1.64148 -0.763906 -1.61701 
-1.56429 -1.07884 0.125755 0.0363667 -1.39229 -3.75302 1.87722 1.39426 1.78421 
-9.24604 -1.23039 -1.02853 -0.366563 -0.0936226 0.27976 -1.44863 -1.42843 -0.245243 
-11.731 -6.16441 0.853552 -1.12628 1.87009 -0.651021 2.0459 -2.767 -0.307042 
-4.95029 -7.7472 -0.848852 -0.824258 -0.842244 0.262843 -2.0959 2.03278 -0.464882 
-0.351559 -1.36774 -3.17806 1.69915 0.728077 2.83106 0.469614 -0.723793 -0.398742 
0.967262 -0.581282 -12.3267 -2.04734 -0.425599 -1.02934 -21.7887 0.324086 -2.64556 
0.497505 0.440643 -1.626 0.786574 3.24828 -1.69739 -0.387932 -0.541041 1.76861 
1.51902 -0.597579 -1.87743 1.27683 -2.53991 2.04376 0.38894 0.480319 -3.96355 
0.870718 0.0542326 -0.142846 2.01007 -1.92449 1.87731 1.24818 2.45469 0.312978 
0.501302 -0.0226477 -1.24562 -0.119353 1.72827 0.774742 2.29892 0.122797 -1.60146 
-2.53577 0.947208 0.763381 1.59884 -2.50018 0.511421 -2.83487 1.93267 -3.39838 
-1.19465 -0.463096 -1.03486 0.352126 0.0181461 -1.41054 1.01695 0.869931 -1.59062 
0.884806 -2.47727 1.17382 -1.11099 0.574546 -0.462047 1.26349 -6.43409 -0.489685 
-0.547842 -0.882459 -0.962871 1.35579 0.229041 2.11314 -0.766581 0.0624325 0.953037 
-0.095511 1.0301 0.861339 -0.369287 0.0214611 2.29172 0.172263 1.55775 -0.617259 
1.13389 -0.51393 0.332175 -3.2089 0.350323 1.91291 0.168837 1.6409 0.126983 
0.503843 0.471914 0.983231 -1.74734 0.186178 0.358731 -8.74959 0.766712 -1.6529 
-0.888532 0.889004 -2.55391 -15.0486 0.625376 0.0409044 -0.019686 0.3801 -6.32489 
-0.294742 0.710216 0.344093 0.689936 -0.165378 -2.74864 0.335298 -1.36453 -1.73786 
0.534753 0.488818 -0.528481 0.459622 -0.136361 2.15825 -1.65984 2.9612 0.853652 
-1.31685 7.79475 -1.34289 -0.869846 -1.37502 -0.617356 -1.91814 0.0399677 -1.56389 
-0.938275 -3.28719 -3.53011 -0.385164 -3.10321 -2.05652 -0.272851 -3.14009 -0.157639 
-15.7241 -1.7552 -3.41735 -1.41719 -0.874551 -1.13784 -1.49446 -3.39059 -1.25417 
-4.17309 -1.19715 -0.332186 1.17889 -0.86019 -2.71346 -2.7176 -1.89171 -1.25693 
-0.964395 -5.20657 -0.00366935 -0.668371 -2.72685 -1.84187 0.375392 -2.50588 0.408625 

hks 16 252 double
0.55740151143 0.56345446017 0.56966259086 0.57602495385 0.58253986059 0.58920491003 0.59601703436 0.60297256325 0.61006730474 
0.61729664062 0.62465563344 0.63213914203 0.6397419421 0.64745884846 0.65528483531 0.66321515146 0.49545182023 0.50245018273 
0.50959814006 0.5168896181 0.52431796799 0.53187604572 0.53955630821 0.54735092373 0.55525189386 0.5632511838 0.57134085722 
0.57951321212 0.58776091355 0.59607711974 0.60445559802 0.61289082777 0.56013115639 0.56691483971 0.57381665642 0.5808355589 
0.58797006492 0.59521826341 0.60257783558 0.61004609127 0.61762001962 0.62529635264 0.63307164002 0.64094233264 0.64890487228 
0.65695578482 0.66509177396 0.67330981266 0.66309835358 0.66824189969 0.67352849681 0.67895636605 0.68452386598 0.69022951958 
0.69607203531 0.70205032288 0.70816350386 0.71441091782 0.72079212456 0.72730690319 0.73395524863 0.74073736643 0.74765366642 
0.7547047559 0.66232204093 0.66761343244 0.67297079874 0.67840143379 0.68391267458 0.68951180182 0.69520594811 0.70100201577 
0.70690660558 0.71292595774 0.71906590553 0.72533184218 0.73172870079 0.73826094695 0.74493258342 0.75174716599 0.6115189667 
0.61812084402 0.62478270471 0.631507572 0.63829843436 0.64515819861 0.65208965372 0.65909544577 0.66617806431 0.67333983979 
0.68058295121 0.68790944287 0.69532124887 0.70282022365 0.71040817702 0.71808691185 0.56320437321 0.56860656256 0.57418298372 
0.57993489119 0.58586260471 0.5919655091 0.59824207678 0.60468991274 0.61130582072 0.6180858889 0.62502559249 0.63211991041 
0.63936345258 0.64675059412 0.65427561279 0.66193282583 0.51568653748 0.51903399025 0.52267706515 0.52661857686 0.53085939357 
0.53539842961 0.54023267898 0.54535728909 0.55076567304 0.55644965738 0.56239966131 0.56860490245 0.57505362338 0.5817333328 
0.58863105487 0.59573358014 0.61654394869 0.62196261938 0.62749713239 0.63315249987 0.63893325319 0.64484338221 0.650886291 
0.65706477096 0.66338099198 0.66983651136 0.67643229984 0.68316878351 0.69004589971 0.69706316492 0.70421975213 0.71151457497 
0.56740913212 0.57379511704 0.58027369645 0.58684777153 0.59351990037 0.60029224751 0.60716654885 0.61414409267 0.62122571729 
0.62841182512 0.6357024121 0.64309711136 0.65059524921 0.65819591124 0.66589801625 0.67370039522 0.4966380663 0.50124536478 
0.50611795224 0.51125311528 0.51664660384 0.52229269557 0.52818429099 0.53431303788 0.54066948184 0.54724323946 0.5540231896 
0.56099767783 0.56815472868 0.57548226028 0.58296829573 0.59060116618 0.58842917816 0.59486708275 0.60144059284 0.60814579636 
0.61497867455 0.62193513332 0.62901103996 0.6362022651 0.64350472973 0.65091445655 0.6584276247 0.66604062669 0.67375012601 
0.68155311383 0.68944696328 0.69742947953 0.5544269302 0.56027954401 0.56631999191 0.57254665662 0.57895705295 0.58554783134 
0.59231480628 0.59925300952 0.60635676701 0.6136197977 0.62103533121 0.62859624082 0.63629518766 0.64412477167 0.65207768453 
0.66014686007 0.47769776899 0.48224747153 0.48708588542 0.4922078771 0.49760667616 0.5032739626 0.50919998993 0.51537374172 
0.52178311741 0.52841514261 0.53525619794 0.54229225987 0.54950914686 0.55689276384 0.56442933836 0.5721056423 0.4308706385 
0.43453830629 0.43842064143 0.44251714804 0.44682655926 0.45134682731 0.45607512731 0.46100787603 0.4661407662 0.4714688165 
0.47698643674 0.48268750706 0.48856546967 0.49461343083 0.50082427073 0.50719075834 0.37303156511 0.37686110835 0.38082472017 
0.38492447204 0.38916182523 0.39353761852 0.39805206975 0.40270479105 0.40749481737 0.41242064739 0.41748029555 0.42267135361 
0.42799106001 0.43343637496 0.43900405915 0.4446907542 0.29195243939 0.29162174464 0.29139776538 0.29128478121 0.29128709712 
0.29140901354 0.29165478989 0.29202860277 0.29253450041 0.29317635496 0.29395781462 0.29488225726 0.29595274749 0.29717199876 
0.29854234179 0.30006570073 0.45084531003 0.45669341858 0.46272223273 0.46892820236 0.47530676015 0.48185239988 0.48855877575 
0.49541882069 0.50242488023 0.50956885856 0.51684237288 0.52423691191 0.53174399457 0.53935532471 0.54706293828 0.55485933953 
0.47231659341 0.47713273082 0.48219325492 0.48749550131 0.49303534238 0.49880725926 0.50480444253 0.51101891959 0.51744170553 
0.52406297382 0.53087224248 0.53785857086 0.54501076209 0.55231756593 0.55976787717 0.56735092465 0.26793186467 0.26652582859 
0.2651842884 0.26391341947 0.26271955825 0.26160916929 0.260588804 0.25966505204 0.25884448617 0.2581336022 0.25753875549 
0.25706609604 0.25672150399 0.25651052763 0.25643832574 0.25650961614 0.40117660185 0.40381070222 0.4067109295 0.40987461037 
0.41329798588 0.41697626085 0.42090366747 0.42507354308 0.42947842116 0.43411013484 0.43895993118 0.44401859455 0.44927657685 
0.45472413202 0.46035145215 0.46614880237 0.32408614864 0.32516753761 0.32633672735 0.32759821509 0.32895677788 0.3304174072 
0.33198523445 0.33366544978 0.33546321704 0.3373835877 0.33943141667 0.34161128277 0.34392741642 0.3463836368 0.34898330016 
0.35172926087 0.48832120704 0.49299357707 0.49774109002 0.50255905277 0.50744211582 0.51238432563 0.51737919216 0.52241976985 
0.52749874987 0.53260856127 0.53774147808 0.54288972956 0.54804561039 0.55320158797 0.55835040395 0.56348516757 0.33429420592 
0.33678447535 0.33938828715 0.34210925567 0.34495067133 0.34791545702 0.35100613205 0.35422478477 0.35757305488 0.36105212576 
0.36466272713 0.36840514786 0.37227925828 0.37628454136 0.38042013152 0.38468485987 1.2428504753 1.2487633542 1.2540321471 
1.2586464841 1.2625982122 1.2658813696 1.2684921453 1.2704288259 1.2716917284 1.2722831198 1.2722071235 1.2714696136 
1.270078098 1.2680415921 1.2653704836 1.2620763925 0.57021013983 0.57195542081 0.57379498949 0.57573926599 0.57779751203 
0.57997767393 0.58228625529 0.58472822232 0.58730694332 0.59002416335 0.59288001371 0.59587305503 0.59900035195 0.60225757641 
0.60563913586 0.60913832237 0.30632788451 0.30817178684 0.31010694782 0.31213689575 0.3142651423 0.31649512949 0.31883017747 