# vtk DataFile Version 5.1
vtk output
ASCII
DATASET POLYDATA
POINTS 252 float
0.126547 0.655511 -0.119164 0.159814 0.527097 -0.086022 0.081317 0.642721 -0.057367 
0.045476 0.603551 -0.001704 0.097512 0.585394 -0.06468 0.187135 0.543483 -0.108305 
0.205061 0.508078 -0.04954 0.182062 0.476653 0.017927 0.191998 0.492202 -0.078194 
0.140725 0.547426 -0.063714 0.031049 0.580029 -0.018383 0.153203 0.571953 -0.04404 
0.674864 0.346686 -0.03498 0.619641 0.344049 0.08419 0.106158 0.536234 -0.006986 
0.155856 0.501486 -0.012173 0.128594 0.484677 0.034237 0.168711 0.459986 0.053139 
0.179033 0.439246 -0.112375 0.732199 0.30072 0.09334 0.133596 0.422138 0.086701 
0.219427 0.381265 0.075314 0.130879 0.441257 0.006752 0.606595 0.297224 -0.021392 
0.664668 0.216498 0.104151 0.137959 0.368326 0.104069 0.745594 0.260888 0.016527 
0.266688 0.377861 -0.074506 0.617637 0.287588 0.107236 0.16579 0.301081 0.023491 
0.562626 0.246625 0.072128 0.251015 0.284059 -0.046587 0.554568 0.223617 -0.002888 
0.66336 0.214379 -0.008401 0.568461 0.179281 0.035611 0.173038 0.354074 -0.115093 
0.589134 0.204131 0.079286 0.195871 0.346058 0.114226 0.27351 0.195605 0.073972 
0.231241 0.349587 -0.110759 0.465718 0.175643 0.024315 0.441619 0.165239 0.059543 
0.363188 0.158223 0.008828 0.180318 0.198094 0.102366 0.057857 0.232537 -0.111482 
0.183396 0.213132 0.013088 0.206264 0.200483 -0.054772 0.151358 0.236835 -0.099877 
0.106697 0.260371 0.047696 0.3668 0.132593 0.071027 0.376324 0.111716 -0.068725 
0.10426 0.198178 -0.171643 0.45119 0.127684 0.06434 0.35186 0.082836 0.139818 
0.297437 0.181854 -0.072243 0.408368 0.114175 0.002292 0.285664 0.117706 0.164669 
0.389713 0.074779 0.047077 0.074121 0.227068 0.131043 -0.047581 0.223324 -0.01629 
0.132358 0.086331 0.259554 0.113894 0.213286 0.175264 0.220956 0.120811 -0.169767 
-0.517074 0.340914 0.012592 -0.462272 0.304099 0.149205 -0.5254 0.29926 -0.106131 
-0.457326 0.302905 0.051933 -0.479183 0.293361 -0.081185 -0.100621 0.206538 0.050761 
-0.202079 0.222381 -0.0084 0.178056 0.111694 0.191795 -0.127567 0.18517 -0.077846 
-0.304727 0.241566 0.006571 -0.432625 0.220512 0.196694 -0.398735 0.24868 -0.003564 
0.314324 0.078534 -0.154109 -0.196746 0.127695 0.036423 -0.398269 0.247316 -0.059875 
-0.228246 0.154313 0.16046 -0.073745 0.164348 -0.129368 -0.473742 0.229527 -0.087066 
-0.432794 0.267876 0.107359 0.27424 0.022346 0.207106 -0.35868 0.204458 0.017337 
-0.453911 0.211731 0.240587 0.136709 0.086831 -0.25053 0.397838 0.001798 0.0435 
0.244317 -0.031685 -0.216629 0.323444 -0.072161 -0.186724 -0.331593 0.215271 -0.051548 
-0.154057 0.061892 -0.168943 -0.49949 0.214979 0.143021 0.369875 -0.100997 0.068497 
-0.234617 0.180368 -0.048492 -0.063294 0.156895 0.180053 -0.300635 0.155825 -0.027364 
-0.200169 0.124559 0.237831 0.164192 0.13639 0.21107 0.006938 0.130696 -0.205494 
-0.224431 0.14891 0.029582 0.084531 0.020705 0.289073 0.195693 -0.058227 0.252753 
0.444033 -0.110558 0.038103 -0.560682 0.223552 -0.035009 -0.005123 0.109656 0.23384 
0.322305 -0.04948 0.185098 0.66192 -0.139379 0.018504 0.159066 -0.010183 0.341196 
-0.475292 0.194499 0.108034 -0.208656 0.107171 -0.035291 -0.559718 0.168575 -0.092794 
-0.10539 0.068181 -0.197583 -0.246432 0.02699 0.004766 -0.516033 0.284292 0.075157 
0.714567 -0.217302 -0.021462 0.365953 -0.049029 -0.110959 -0.0705 -0.04907 0.255226 
0.619393 -0.194449 0.124144 -0.185529 0.059624 -0.277475 -0.234948 0.02584 0.123871 
-0.090053 0.073043 0.255159 0.479542 -0.15336 0.079003 0.128935 -0.029782 -0.274365 
0.606827 -0.16951 -0.024611 0.138008 -0.061907 0.297772 0.489818 -0.141215 0.021252 
-0.394514 0.159215 0.007103 0.562238 -0.165841 0.059096 0.704863 -0.294776 0.054974 
-0.124077 0.036362 0.240847 0.366634 -0.090165 0.017371 -0.104463 0.025502 -0.237528 
0.547516 -0.198798 0.067626 -0.144367 0.03094 -0.337207 0.72808 -0.199441 0.085993 
0.419149 -0.151865 0.049754 0.317657 -0.137095 0.066919 -0.0157 0.005792 -0.238035 
-0.475109 0.130701 -0.049415 -0.110575 0.002944 0.288986 -0.527457 0.134043 0.141773 
0.5455 -0.205487 0.034183 0.303984 -0.144612 -0.058488 0.06821 -0.018049 -0.277092 
0.013614 -0.08466 0.275056 -0.577434 0.11601 0.011148 -0.513882 0.113833 0.076551 
-0.190749 -0.004244 -0.324926 0.608597 -0.271792 0.067022 0.324316 -0.207885 0.0745 
-0.154126 -0.021216 -0.285636 -0.169026 -0.009727 -0.469867 -0.175642 -0.025031 -0.169524 
0.611367 -0.265424 0.017993 -0.122029 -0.047713 -0.206153 0.282982 -0.185144 -0.167657 
-0.231152 0.005468 0.258387 -0.228401 0.007089 -0.089337 -0.128287 -0.040658 -0.526291 
-0.268986 0.043698 0.216395 -0.123578 -0.032445 -0.362104 0.02126 -0.156727 -0.236625 
0.302046 -0.179492 0.160396 -0.110071 -0.056763 -0.481952 -0.268107 -0.108275 0.071053 
-0.103485 -0.076278 -0.656535 0.117061 -0.129106 -0.255551 -0.150852 -0.044847 -0.692539 
0.204192 -0.162268 -0.200704 -0.184168 -0.057684 -0.511168 -0.12889 -0.09099 -0.662028 
-0.139473 -0.069277 0.232857 -0.138704 -0.07914 -0.466273 -0.253264 -0.069426 0.225245 
-0.096125 -0.099306 -0.765652 0.127204 -0.164611 0.261408 -0.137623 -0.08699 -0.754569 
-0.580193 -0.00329 0.022926 -0.292465 -0.068845 0.145208 0.345311 -0.224539 -0.038066 
0.114546 -0.256526 0.195937 -0.245544 -0.067391 -0.031006 0.010626 -0.192207 0.227599 
-0.156685 -0.161463 0.17416 0.115193 -0.247843 -0.178785 0.289592 -0.250066 -0.079383 
-0.209339 -0.146426 -0.059586 0.236282 -0.277129 0.023488 0.27165 -0.327073 -0.110081 
-0.140354 -0.154039 -0.148653 0.206987 -0.27134 0.109981 0.351672 -0.286937 0.053714 
-0.545352 -0.031312 0.143454 -0.212557 -0.182611 0.05419 -0.380189 -0.133514 0.027954 
-0.392517 -0.111965 -0.038342 -0.641505 -0.028557 -0.002705 0.2149 -0.329337 0.107202 
-0.563168 -0.021228 -0.045648 0.347789 -0.3037 -0.071292 0.223521 -0.296591 0.074116 
0.291729 -0.359004 0.085054 -0.166008 -0.198046 -0.06248 -0.343178 -0.164962 0.021366 
-0.572286 -0.095375 0.094843 -0.234101 -0.184563 0.003996 -0.568531 -0.086354 -0.078974 
-0.369232 -0.163811 -0.058937 -0.41541 -0.133783 -0.059893 0.104023 -0.309181 -0.106512 
0.008132 -0.256191 -0.149133 0.09862 -0.333166 -0.003604 -0.535296 -0.145634 -0.072896 
-0.41658 -0.163319 -0.022278 -0.002942 -0.318952 -0.022581 0.107096 -0.314501 0.109826 
-0.613844 -0.073872 0.102906 0.274855 -0.387959 -0.093946 -0.581548 -0.179221 0.096021 
0.203294 -0.416988 0.087023 -0.517669 -0.161517 0.039048 -0.007511 -0.296302 0.116646 
0.146693 -0.385468 0.07859 0.310467 -0.370942 -0.032801 -0.528137 -0.046716 0.052105 
0.195067 -0.398014 -0.122114 0.179793 -0.344548 -0.105282 -0.665404 -0.103819 -0.118471 
-0.65184 -0.147069 -0.120653 0.193898 -0.479466 -0.040219 0.07433 -0.450119 0.065679 
-0.645832 -0.185487 0.07248 -0.621626 -0.204324 0.065183 0.13394 -0.50237 -0.045555 
-0.687186 -0.194947 -0.060446 0.126345 -0.471395 -0.058887 0.132261 -0.454756 0.061797 
0.063524 -0.435842 0.052996 0.110582 -0.482729 -0.007774 0.009925 -0.534783 -0.013589 
0.062316 -0.514177 -0.030217 -0.008932 -0.50208 0.088075 0.023651 -0.546137 0.005435 
0.084734 -0.461509 0.028702 0.038392 -0.511281 0.025331 0.106613 -0.446578 0.000145 
-0.085649 -0.579708 0.002762 -0.03769 -0.512092 0.059311 0.018474 -0.579892 -0.049649 
-0.014454 -0.586911 -0.030594 -0.059539 -0.546116 0.06829 0.003615 -0.563798 -0.058683 

POLYGONS 501 1500
OFFSETS vtktypeint64
0 3 6 9 12 15 18 21 24 
27 30 33 36 39 42 45 48 51 
54 57 60 63 66 69 72 75 78 
81 84 87 90 93 96 99 102 105 
108 111 114 117 120 123 126 129 132 
135 138 141 144 147 150 153 156 159 
162 165 168 171 174 177 180 183 186 
189 192 195 198 201 204 207 210 213 
216 219 222 225 228 231 234 237 240 
243 246 249 252 255 258 261 264 267 
270 273 276 279 282 285 288 291 294 
297 300 303 306 309 312 315 318 321 
324 327 330 333 336 339 342 345 348 
351 354 357 360 363 366 369 372 375 
378 381 384 387 390 393 396 399 402 
405 408 411 414 417 420 423 426 429 
432 435 438 441 444 447 450 453 456 
459 462 465 468 471 474 477 480 483 
486 489 492 495 498 501 504 507 510 
513 516 519 522 525 528 531 534 537 
540 543 546 549 552 555 558 561 564 
567 570 573 576 579 582 585 588 591 
594 597 600 603 606 609 612 615 618 
621 624 627 630 633 636 639 642 645 
648 651 654 657 660 663 666 669 672 
675 678 681 684 687 690 693 696 699 
702 705 708 711 714 717 720 723 726 
729 732 735 738 741 744 747 750 753 
756 759 762 765 768 771 774 777 780 
783 786 789 792 795 798 801 804 807 
810 813 816 819 822 825 828 831 834 
837 840 843 846 849 852 855 858 861 
864 867 870 873 876 879 882 885 888 
891 894 897 900 903 906 909 912 915 
918 921 924 927 930 933 936 939 942 
945 948 951 954 957 960 963 966 969 
972 975 978 981 984 987 990 993 996 
999 1002 1005 1008 1011 1014 1017 1020 1023 
1026 1029 1032 1035 1038 1041 1044 1047 1050 
1053 1056 1059 1062 1065 1068 1071 1074 1077 
1080 1083 1086 1089 1092 1095 1098 1101 1104 
1107 1110 1113 1116 1119 1122 1125 1128 1131 
1134 1137 1140 1143 1146 1149 1152 1155 1158 
1161 1164 1167 1170 1173 1176 1179 1182 1185 
1188 1191 1194 1197 1200 1203 1206 1209 1212 
1215 1218 1221 1224 1227 1230 1233 1236 1239 
1242 1245 1248 1251 1254 1257 1260 1263 1266 
1269 1272 1275 1278 1281 1284 1287 1290 1293 
1296 1299 1302 1305 1308 1311 1314 1317 1320 
1323 1326 1329 1332 1335 1338 1341 1344 1347 
1350 1353 1356 1359 1362 1365 1368 1371 1374 
1377 1380 1383 1386 1389 1392 1395 1398 1401 
1404 1407 1410 1413 1416 1419 1422 1425 1428 
1431 1434 1437 1440 1443 1446 1449 1452 1455 
1458 1461 1464 1467 1470 1473 1476 1479 1482 
1485 1488 1491 1494 1497 1500 
CONNECTIVITY vtktypeint64
82 97 101 175 182 180 104 120 139 
124 100 144 124 144 175 144 182 175 
97 60 107 101 97 107 101 107 124 
101 124 175 108 140 146 218 216 231 
29 45 43 120 129 139 124 107 100 
100 107 60 212 213 220 207 213 212 
212 208 207 198 195 208 89 95 138 
77 89 80 74 72 77 206 208 212 
198 208 206 80 138 110 80 89 138 
67 77 80 234 227 228 228 212 234 
196 227 234 206 212 228 227 206 228 
198 206 227 196 198 227 110 138 145 
145 103 110 65 110 103 65 80 110 
65 67 80 63 65 103 63 67 65 
114 128 153 114 134 128 106 134 114 
153 123 114 123 106 114 106 123 127 
2 11 4 109 90 157 109 71 90 
199 217 188 155 179 185 142 179 155 
235 226 225 226 188 225 188 217 225 
184 185 209 155 185 184 155 88 142 
88 115 142 75 115 88 54 50 75 
75 50 115 168 155 184 54 75 62 
210 184 209 47 46 62 62 46 54 
189 161 210 51 62 85 51 47 62 
44 47 51 79 44 98 44 51 98 
1 0 5 154 161 189 152 154 189 
75 88 87 62 75 87 111 98 137 
131 137 154 111 137 131 31 21 38 
45 48 43 243 236 230 86 105 92 
92 105 136 191 149 197 247 250 241 
21 37 38 37 25 43 38 37 43 
48 61 43 247 243 250 49 38 56 
56 38 43 211 215 221 230 222 237 
230 237 241 241 237 247 243 230 241 
243 241 250 49 56 53 149 162 190 
197 200 222 197 222 219 219 222 230 
229 219 236 219 230 236 49 53 57 
86 57 53 86 53 105 105 162 136 
136 162 149 191 197 201 79 98 111 
157 90 152 90 118 152 111 118 90 
168 88 155 87 88 168 166 168 184 
122 168 166 122 87 168 161 184 210 
166 184 161 143 122 166 85 87 122 
85 62 87 166 161 143 137 143 161 
143 85 122 85 143 98 51 85 98 
154 137 161 98 143 137 133 150 160 
133 131 150 150 131 154 133 111 131 
118 111 133 152 150 154 152 147 150 
118 147 152 160 147 172 150 147 160 
118 151 147 133 151 118 163 160 172 
158 133 163 133 160 163 172 147 169 
147 151 169 151 133 158 169 170 172 
163 172 170 151 167 169 158 167 151 
165 163 170 158 163 165 174 165 170 
167 158 165 167 165 174 169 176 170 
169 167 176 167 174 176 23 12 33 
33 12 26 12 19 26 32 23 33 
203 194 213 76 99 109 164 181 195 
221 193 214 74 81 83 145 138 126 
126 146 145 224 194 198 212 220 232 
72 74 83 99 83 126 95 126 138 
198 194 195 194 224 220 220 224 218 
69 72 68 68 72 83 68 83 99 
99 126 95 164 195 194 213 194 220 
68 99 76 78 68 76 76 119 78 
109 112 76 112 119 76 112 164 119 
178 119 164 164 194 203 164 203 193 
205 193 203 59 68 58 58 68 94 
20 22 25 48 59 58 17 16 20 
21 17 37 17 20 37 25 22 29 
37 20 25 25 29 43 61 48 58 
217 199 223 199 191 223 185 188 226 
179 191 199 185 199 188 179 199 185 
115 86 130 86 92 130 50 86 115 
50 55 86 225 229 233 235 225 233 
225 217 229 200 226 222 42 55 50 
54 42 50 251 235 248 251 240 235 
233 248 235 238 245 235 226 235 245 
185 211 209 214 209 211 144 116 182 
198 177 224 144 104 116 144 100 104 
60 61 104 182 171 183 116 171 182 
139 171 116 139 129 171 116 104 139 
94 129 120 104 94 120 171 173 183 
156 173 171 129 156 171 129 96 156 
94 96 129 173 159 178 159 119 178 
156 159 173 156 96 159 97 61 60 
238 240 233 238 242 239 245 238 239 
238 235 240 243 247 237 238 236 242 
236 244 242 236 243 244 243 245 244 
237 245 243 222 245 237 211 190 215 
28 36 24 183 193 221 201 197 219 
63 64 66 64 63 113 140 113 145 
192 177 216 216 177 196 216 196 231 
66 64 81 81 73 108 83 81 126 
126 81 108 140 91 113 126 108 146 
146 140 145 224 177 192 224 192 204 
224 204 218 220 218 232 232 218 231 
94 78 96 159 78 119 173 178 183 
178 164 183 94 68 78 183 164 193 
61 58 94 61 94 104 54 31 38 
242 246 239 242 244 246 244 245 246 
211 221 214 47 48 45 29 46 45 
27 21 31 6 21 27 245 239 246 
18 35 22 22 15 18 6 7 21 
7 17 21 16 15 22 7 15 16 
9 1 15 14 7 16 1 11 6 
15 4 9 1 9 11 11 7 6 
20 16 22 251 248 249 47 45 46 
29 35 46 249 240 251 210 209 214 
31 54 46 39 31 46 35 39 46 
39 27 31 202 210 214 48 47 44 
22 35 29 35 18 39 18 27 39 
18 8 27 15 8 18 1 8 15 
8 6 27 5 0 6 189 210 202 
59 44 79 48 44 59 1 5 8 
6 0 1 186 189 202 152 189 186 
157 186 181 79 111 90 71 79 90 
59 79 71 4 11 9 157 152 186 
193 202 214 10 14 16 17 3 16 
3 10 16 3 17 7 3 7 14 
43 61 70 61 97 70 221 182 183 
180 182 221 180 221 215 56 43 70 
70 97 56 56 97 82 162 175 180 
190 180 215 82 53 56 53 82 105 
105 82 101 105 101 162 162 101 175 
162 180 190 81 64 73 64 113 73 
73 113 84 113 91 84 73 84 108 
91 108 84 108 91 140 192 216 204 
218 204 216 96 78 159 7 2 15 
2 4 15 7 11 2 193 205 202 
186 202 205 59 69 68 59 71 69 
10 3 14 207 205 203 186 205 207 
208 186 207 195 186 208 195 181 186 
164 112 181 181 112 157 112 109 157 
93 109 95 93 71 109 95 109 99 
207 203 213 89 93 95 77 69 93 
71 93 69 89 77 93 72 69 77 
30 41 36 30 32 40 30 13 32 
28 13 30 13 23 32 12 23 13 
217 219 229 223 219 217 223 201 219 
191 201 223 149 191 179 179 142 149 
142 136 149 142 130 136 136 130 135 
121 92 136 130 142 115 92 102 130 
55 34 57 34 52 57 52 49 57 
40 55 42 41 49 52 49 40 42 
41 40 49 40 34 55 40 32 34 
41 30 40 233 236 238 233 229 236 
222 226 245 187 226 200 42 38 49 
54 38 42 240 249 233 86 55 57 
248 233 249 66 74 77 66 81 74 
67 66 77 212 232 234 231 196 234 
32 33 34 33 24 34 125 127 123 
28 30 36 36 41 52 34 36 52 
102 92 121 130 102 125 130 125 135 
125 141 135 121 136 135 12 13 19 
19 13 28 24 19 28 24 36 34 
102 127 125 102 121 127 127 121 132 
125 123 141 121 135 132 135 141 132 
19 24 26 33 26 24 117 106 127 
117 127 132 141 123 153 117 132 148 
132 141 148 141 153 148 106 117 134 
134 117 128 128 117 148 128 148 153 
63 66 67 113 63 103 113 103 145 
5 6 8 234 232 231 177 198 196 
149 187 200 60 104 100 187 149 190 
149 200 197 176 174 170 185 190 211 
226 187 185 187 190 185 
POINT_DATA 252
SCALARS k float
LOOKUP_TABLE default
5.41674 -2.91498 4.81102 3.12768 0.729196 0.923522 -1.10281 -2.09608 -2.10192 
-1.04154 2.90043 -0.0267293 2.09094 1.36304 0.174445 -1.98397 -3.23374 -0.0632848 
0.736597 1.60995 0.447494 0.106856 0.0752296 0.300666 0.962738 0.4546 1.42772 
0.707399 0.360087 -0.0100827 -0.59608 -1.02107 -0.341748 0.609763 -0.546294 0.604443 
-0.434915 0.415119 -0.743198 0.429316 -0.910199 -0.388651 -0.905005 -2.31291 0.158679 
-0.81668 -2.05504 0.379676 0.342022 -1.1683 0.150177 0.195494 -0.0883174 0.259427 
-0.591662 -1.36273 -0.192778 -1.04619 0.0174609 -0.164696 -0.0581803 0.405506 -0.146981 
1.01225 1.25653 1.67816 0.00452363 0.050827 -0.769276 -0.256334 1.28995 -0.346835 
0.0312047 -0.0477207 -0.551774 0.152804 -1.44735 -0.405807 0.634763 -0.0399532 -0.0359991 
-0.678461 0.0517839 -1.0827 4.11314 0.297622 0.0877219 -0.069472 0.339108 -0.0815609 
-0.758397 -1.64449 -1.83144 -0.428646 -0.320726 -0.82942 0.697471 -1.15673 0.0747816 
-0.472892 -0.210756 -0.453343 0.129258 0.0652727 -0.20291 0.0615768 1.00673 1.98422 
-0.841653 -1.65905 1.18841 -0.737812 0.0878072 -0.157564 1.64673 0.161721 -0.387796 
1.34984 0.666803 0.0177009 0.188526 0.064955 0.160204 0.322888 -0.461864 -0.755778 
-0.706037 -0.829491 1.93361 -0.681143 -2.52024 -1.16359 -0.868775 -0.49452 1.57006 
-0.307833 -1.61266 -0.260487 0.13455 1.25556 2.02653 -0.380721 -0.144806 0.228592 
0.0408276 1.13196 0.17492 -0.18073 0.612358 -1.65284 -1.13277 -0.255074 -0.762547 
0.548396 -1.05027 0.0487289 0.458057 0.163093 -0.0767444 0.331441 0.0881798 0.156993 
0.281155 0.0796072 -1.87836 -0.0640014 0.166952 0.68539 -0.0398933 0.239386 -0.0304274 
-0.458323 0.369793 0.521329 3.72198 0.145218 1.65707 0.396503 0.565618 -0.175929 
0.193707 -1.33211 0.066112 -0.0724681 0.118849 -2.80426 -0.864498 -2.66852 0.195689 
0.147032 -0.278727 0.539546 3.21487 -0.352793 -1.48405 -0.865236 0.616294 0.464381 
0.424188 0.748185 0.0441487 0.464644 -0.0561975 0.0345212 -0.611819 -0.268669 -0.0573522 
0.0506823 -0.12216 0.24455 0.110378 0.192974 -0.460802 -0.18906 0.244982 0.213078 
0.0694711 0.174805 0.889642 0.202818 -0.715566 0.223834 -0.374569 0.184202 -1.04082 
0.640509 0.638667 1.31494 0.806859 0.368302 -0.868398 0.697391 0.592059 -0.546013 
1.56419 -1.00296 -0.564824 -0.144906 -4.76118 0.260933 -0.444524 0.912396 0.332386 
-4.16813 -0.321543 -0.947524 5.39616 0.580328 0.725827 4.12545 4.69681 1.24625 

FIELD FieldData 7
h 1 252 float
-0.327963 2.91183 1.656 0.0875383 0.0389781 -1.09959 2.73722 0.991516 -0.173117 
-0.231379 -1.74236 2.68921 4.3624 3.25253 -1.3828 -6.30654 -2.26698 0.421892 
1.6505 2.2893 1.31938 2.54673 -2.74866 2.045 1.58471 0.716058 1.19791 
3.19386 -0.436025 -4.46166 -0.421009 2.52865 0.872114 0.498345 -0.292279 -0.374329 
-0.574152 0.756873 0.976483 0.77984 -0.36704 -0.290834 3.64268 0.285 0.651157 
2.11777 0.03267 2.46156 2.09434 0.22126 2.14766 1.21889 0.130679 1.55384 
1.25178 -0.646927 0.958757 1.13774 1.61743 0.977899 1.75003 1.6523 0.992829 
2.49194 1.56553 6.73639 1.53199 0.658099 2.09538 0.333442 1.26079 -0.163335 
1.90997 -0.789583 0.980984 1.17106 1.4784 0.169116 1.79724 0.259178 2.12962 
-1.33617 1.28915 0.224149 7.00893 2.1911 4.20087 1.82518 2.18633 0.432347 
-0.00656867 5.41364 0.232419 0.730225 1.34071 -2.9219 2.46601 1.42235 0.751524 
0.161689 2.42303 2.08732 -0.0252733 22.4105 1.8275 1.6398 -2.65287 2.6113 
0.27992 0.233021 1.41439 0.273704 1.1582 8.67067 0.470939 2.09506 2.43649 
0.516729 0.480157 0.018364 2.01005 0.435534 2.68915 0.531594 2.88348 -0.353025 
-3.05817 -0.650582 3.41058 1.91232 0.602028 2.33012 -0.509512 0.250505 1.93466 
-0.827762 2.53954 2.38458 0.122763 2.86608 7.08794 0.9187 2.67074 2.52289 
2.48491 1.9557 -0.83827 0.156915 -4.52288 1.23087 -1.19676 -0.0996564 1.38167 
1.09658 1.04378 2.28926 3.14798 1.12469 0.695171 3.38817 -0.424387 1.63928 
1.76537 -1.34941 2.66029 -3.53918 2.24102 0.185917 2.0278 0.324238 -2.98378 
2.44055 -1.03435 2.85464 4.61252 2.76141 1.42822 -0.384898 2.85476 3.06284 
2.20783 -1.13318 3.01012 2.72627 1.84772 1.83962 0.52961 -5.92335 1.85534 
0.594599 3.15201 3.33168 5.35387 1.96066 0.177853 -0.731961 1.5394 0.643605 
0.165672 4.48743 -1.07141 3.58193 0.28265 2.22372 -3.48498 0.0637626 2.24634 
-0.624006 0.513995 2.39467 0.356597 4.78335 -0.594887 0.623375 2.18843 3.29251 
10.4681 6.44029 -2.78209 3.66565 0.801921 2.8795 -1.14445 4.88623 -0.0232302 
2.12655 -1.34133 0.7434 1.3275 5.9925 1.2969 0.482518 1.00431 6.55893 
1.22192 -0.582259 2.65584 -1.88131 4.68701 -1.17133 -0.814424 1.48149 4.49446 
4.294 0.575556 1.35351 -0.369198 -0.166767 0.488604 1.71835 2.44858 1.23101 

kmin 1 252 float
-0.0946002 3.74904 3.37776 1.06078 2.50563 -0.31372 6.64312 2.89601 1.4363 
2.31352 -0.361496 6.11305 9.86417 9.14069 0.645628 0.403727 2.35112 1.24784 
5.57642 4.78557 4.17595 4.29302 1.41434 8.96919 5.27099 1.31413 3.07537 
6.4195 1.45749 0.784422 0.288618 4.20311 1.47578 2.90178 1.15436 1.7367 
1.63132 1.84422 1.78294 2.0698 0.540473 0.92457 7.52737 1.13803 0.71955 
4.10891 1.10581 3.45149 3.57281 0.975978 3.01661 2.54149 1.75989 2.5037 
1.92405 0.341792 2.01092 2.56979 3.22649 1.70071 1.94263 2.24095 2.31754 
5.39367 3.99654 11.9236 5.36833 3.63419 4.23168 0.88746 2.0701 0.995179 
4.42516 2.71532 3.2911 1.62653 1.92811 2.1145 2.64945 1.10887 8.44055 
3.09927 1.99597 1.24169 9.83607 3.91573 7.15056 2.6638 2.41483 2.46667 
0.655021 7.80357 1.24511 2.07817 2.05197 -0.642451 3.0914 2.59651 2.35315 
2.59169 3.04783 2.57091 2.47278 37.2107 2.11711 2.26707 1.97022 3.70333 
2.23287 2.02255 4.00429 1.6683 1.87637 14.1045 1.65998 3.41097 2.94051 
3.72475 0.834788 0.398863 2.25232 0.995127 2.77069 2.32342 3.33949 0.731193 
4.68617 1.89946 7.19656 2.3285 1.67027 7.03548 0.900366 1.09716 4.66112 
0.654632 4.31218 3.26437 0.680507 3.35422 12.0784 4.15181 4.20602 3.24484 
3.01106 4.37104 2.82461 1.01787 -1.61108 1.69444 -0.546221 0.850532 4.44256 
5.03818 1.50781 2.80686 4.41544 3.60258 1.9248 5.23479 0.783051 2.08246 
2.02887 2.02381 3.59756 -0.85374 2.51953 1.18061 2.35694 1.52415 -1.29529 
3.82887 0.723932 4.4848 10.2089 3.72576 3.38276 1.02202 3.47942 4.3624 
2.991 -0.667557 4.72908 4.58503 3.35603 2.45381 2.24194 -0.670488 3.34126 
1.64253 4.433 4.55046 15.1932 3.32737 1.50237 -0.0157731 3.58311 1.13774 
0.548564 6.95169 -0.526455 4.96682 0.725681 4.4031 0.0958881 0.900865 5.01109 
0.18408 0.727544 3.87295 0.842409 7.34743 0.423444 2.16323 3.96464 4.47045 
19.3074 9.63336 -0.837056 5.17326 4.09044 5.1516 -0.327938 7.14928 1.01737 
4.72108 3.58981 2.40554 4.46523 9.52352 2.21027 1.2074 3.71216 10.7594 
2.78045 2.36359 4.33419 -0.0604043 6.97903 1.11962 -0.289211 2.53271 8.24255 
4.95776 1.81955 7.45303 0.333597 1.15886 2.11221 3.29782 4.56357 3.17604 

kmax 1 252 float
-0.561326 2.07463 -0.0657497 -0.8857 -2.42767 -1.88546 -1.16868 -0.91298 -1.78253 
-2.77628 -3.12322 -0.734626 -1.13936 -2.63563 -3.41123 -13.0168 -6.88509 -0.404052 
-2.27542 -0.206974 -1.5372 0.800433 -6.91166 -4.87919 -2.10158 0.117987 -0.67954 
-0.0317788 -2.32954 -9.70775 -1.13064 0.854185 0.268444 -1.90509 -1.73892 -2.48536 
-2.77962 -0.330471 0.170024 -0.510116 -1.27455 -1.50624 -0.242016 -0.568028 0.582764 
0.126638 -1.04047 1.47162 0.615871 -0.533458 1.2787 -0.103714 -1.49853 0.603978 
0.579511 -1.63565 -0.0934088 -0.294319 0.00835827 0.255083 1.55742 1.06365 -0.331879 
-0.409785 -0.865488 1.54921 -2.30435 -2.318 -0.0409206 -0.220576 0.451483 -1.32185 
-0.605219 -4.29449 -1.32913 0.715586 1.02869 -1.77627 0.945018 -0.590509 -4.18131 
-5.7716 0.582331 -0.793396 4.18179 0.466467 1.25119 0.986565 1.95783 -1.60198 
-0.668158 3.02371 -0.780268 -0.617717 0.62946 -5.20136 1.84062 0.248196 -0.850099 
-2.26831 1.79822 1.60372 -2.52333 7.61043 1.53789 1.01253 -7.27595 1.51928 
-1.67303 -1.55651 -1.17551 -1.12089 0.440035 3.23688 -0.718097 0.779155 1.93248 
-2.69129 0.125527 -0.362135 1.76777 -0.124059 2.60762 -1.26023 2.42747 -1.43724 
-10.8025 -3.20063 -0.375396 1.49614 -0.466213 -2.37524 -1.91939 -0.596152 -0.791796 
-2.31016 0.766902 1.50479 -0.434982 2.37794 2.09747 -2.31441 1.13546 1.80095 
1.95876 -0.459634 -4.50115 -0.704037 -7.43468 0.767298 -1.8473 -1.04984 -1.67921 
-2.84502 0.579743 1.77165 1.88052 -1.35321 -0.534461 1.54154 -1.63182 1.1961 
1.50188 -4.72264 1.72302 -6.22463 1.96252 -0.808774 1.69865 -0.875678 -4.67227 
1.05223 -2.79263 1.22449 -0.983864 1.79706 -0.526322 -1.79182 2.2301 1.76327 
1.42466 -1.5988 1.29116 0.867514 0.339417 1.22544 -1.18272 -11.1762 0.36942 
-0.453335 1.87101 2.11291 -4.48541 0.593946 -1.14667 -1.44815 -0.504314 0.149466 
-0.217219 2.02316 -1.61637 2.19704 -0.160382 0.0443361 -7.06584 -0.77334 -0.518407 
-1.43209 0.300445 0.916381 -0.129215 2.21927 -1.61322 -0.916474 0.41222 2.11457 
1.62887 3.24721 -4.72712 2.15804 -2.4866 0.607404 -1.96096 2.62317 -1.06383 
-0.467969 -6.27246 -0.91874 -1.81023 2.46147 0.383528 -0.242368 -1.70353 2.3585 
-0.336613 -3.52811 0.977499 -3.70222 2.39499 -3.46227 -1.33964 0.430267 0.746368 
3.63024 -0.668439 -4.746 -1.07199 -1.49239 -1.135 0.138875 0.333585 -0.71403 

hks 16 252 double
0.83839893205 0.83804588668 0.83767853948 0.83730129837 0.83691772783 0.83653053097 0.83614155237 0.83575179944 0.83536147942 
0.834970049 0.83457627327 0.83417829079 0.83377368197 0.83335953808 0.83293252865 0.83248896574 0.75879731084 0.76221968438 
0.76544995678 0.76849255671 0.77135210826 0.77403334735 0.77654104849 0.77887996169 0.78105475898 0.78306998966 0.78493004321 
0.78663911878 0.78820120011 0.78962003503 0.79089911858 0.79204167932 0.73082661433 0.73563052025 0.74021171836 0.74456630674 
0.74869201222 0.75258805149 0.75625498046 0.75969453615 0.76290947541 0.76590341398 0.76868066921 0.77124610877 0.77360500777 
0.77576291569 0.77772553443 0.7794986084 0.65672643998 0.65796374906 0.65936094502 0.66090833449 0.662594486 0.66440641882 
0.66632981601 0.66834925593 0.67044845596 0.67261052212 0.67481819849 0.67705411049 0.67930099683 0.68154192524 0.68376048809 
0.68594097478 0.74480800524 0.74929146955 0.75356013486 0.75761061581 0.76144105573 0.76505099108 0.76844120547 0.77161357773 
0.77457092755 0.77731686226 0.77985562746 0.78219196387 0.78433097224 0.78627798784 0.7880384654 0.78961787542 0.78274741771 
0.78447803414 0.78611083242 0.78765010022 0.78909969635 0.79046300405 0.7917429022 0.79294175308 0.79406140471 0.79510320544 
0.79606802841 0.79695630318 0.7977680523 0.79850293048 0.79916026461 0.79973909288 0.70340383875 0.70751331826 0.71143366843 
0.71516714794 0.71871643777 0.72208455055 0.72527474651 0.72829045698 0.73113521567 0.73381259795 0.73632616768 0.73867943135 
0.7408757989 0.74291855054 0.74481080927 0.74655551827 0.63621939484 0.6417966646 0.64718516009 0.65238180265 0.65738414364 
0.66219032045 0.66679901345 0.67120940441 0.67542113672 0.67943427739 0.68324928073 0.68686695353 0.69028842145 0.69351509627 
0.6965486439 0.69939095291 0.64560807592 0.65095936834 0.65613017318 0.66111885556 0.66592417762 0.67054524651 0.67498146909 
0.67923251386 0.68329827972 0.68717887118 0.69087457905 0.69438586571 0.69771335377 0.70085781706 0.70382017286 0.7066014745 
0.74021577393 0.74477898814 0.74911169728 0.75321389998 0.75708667451 0.76073206145 0.76415294343 0.76735292429 0.77033620977 
0.77310749154 0.77567183575 0.77803457739 0.78020122113 0.78217734943 0.78396853827 0.78558028101 0.68593760344 0.68561556201 
0.68557190885 0.6857928694 0.68626239988 0.68696245782 0.68787329846 0.68897378969 0.69024173768 0.69165421561 0.69318788806 
0.69481932425 0.69652529387 0.69828304001 0.70007052487 0.70186664475 0.75284290754 0.75717433942 0.76125939141 0.76510012042 
0.76869970621 0.7720623073 0.7751929143 0.77809720385 0.78078139553 0.78325211385 0.7855162571 0.78758087435 0.78945305174 
0.79113980882 0.79264800555 0.79398426039 1.0692962488 1.0816366261 1.0937446708 1.1056027259 1.1171941564 1.1285033724 
1.1395158444 1.1502181137 1.1605977966 1.1706435811 1.180345218 1.1896935036 1.1986802555 1.2072982802 1.2155413327 
1.2234040686 0.9031644775 0.91656647265 0.92975932352 0.94271390694 0.95540328682 0.96780282983 0.97989027748 0.99164577616 
1.0030518677 1.0140934438 1.0247576677 1.0350338681 1.0449134102 1.0543895475 1.0634572607 1.0721130874 0.67515694669 
0.67640589417 0.67780776914 0.67935193614 0.68102619924 0.68281699451 0.68470960244 0.68668837457 0.68873696862 0.69083858618 
0.69297620748 0.6951328178 0.6972916209 0.6994362354 0.70155087064 0.70362047951 0.63190164824 0.63861022015 0.64508005747 
0.65130563118 0.65728265533 0.66300802272 0.66847973312 0.67369681588 0.6786592484 0.68336787216 0.68782430716 0.6920308661 
0.6959904689 0.69970655852 0.7031830187 0.70642409424 0.58537058765 0.58935442713 0.59333551261 0.59730727591 0.60126234295 
0.60519261765 0.60908938387 0.61294342207 0.61674513714 0.6204846934 0.62415215274 0.62773761213 0.63123133653 0.63462388398 
0.63790621984 0.6410698178 0.50819309066 0.51202951271 0.51588226392 0.51974641572 0.52361606159 0.52748438419 0.53134374474 
0.53518579169 0.53900158522 0.54278173343 0.5465165363 0.55019613287 0.55381064765 0.55735033223 0.5608056986 0.56416764095 
0.4883361508 0.49354389347 0.49872613291 0.50387247879 0.5089725972 0.51401626447 0.51899342148 0.52389422818 0.52870911773 
0.53342884949 0.53804456015 0.54254781211 0.54693063823 0.551185582 0.55530573241 0.55928475265 1.0094219694 1.0223015249 
1.0349824093 1.0474373956 1.0596409862 1.0715695415 1.0832013749 1.0945168112 1.1054982126 1.1161299702 1.1263984672 
1.136292013 1.1458007553 1.1549165703 1.1636329379 1.1719448043 0.43745805514 0.44059439036 0.44377630181 0.44700078461 
0.45026391895 0.45356088261 0.45688598468 0.46023271965 0.46359384009 0.46696144593 0.47032708768 0.4736818803 0.47701662482 
0.48032193386 0.48358835788 0.48680650875 0.42692084913 0.43055744968 0.43428722495 0.43809445582 0.44196336109 0.44587823121 
0.44982355567 0.45378414267 0.45774523034 0.46169258844 0.4656126099 0.46949239124 0.47331980156 0.47708353932 0.48077317678 
0.4843791917 0.45301919267 0.4567383755 0.4604728625 0.46421774115 0.46796769158 0.47171699095 0.47545952849 0.47918883101 
0.4828980986 0.48658024979 0.49022797495 0.49383379666 0.49739013522 0.50088937769 0.50432394841 0.50768637927 0.9556858672 
0.96797955352 0.98017176732 0.99222742361 1.0041129767 1.0157967153 1.0272490095 1.0384425055 1.0493522668 1.0599558615 
1.0702333966 1.0801675039 1.0897432795 1.0989481848 1.1077719126 1.1162062272 0.81520002234 0.82793260957 0.8404928677 
0.85285332813 0.8649882588 0.8768738031 0.88848808404 0.8998112733 0.91082562594 0.92151548214 0.93186723793 0.94186928767 
0.95151194146 0.96078732107 0.96968923822 0.97821305945 0.36623479848 0.36550080539 0.36491780489 0.36448752185 0.36421075053 
0.36408731374 0.36411603426 0.36429472005 0.36462016419 0.36508816031 0.36569353373 0.3664301881 0.36729116668 0.3682687272 
0.36935442855 0.37053922742 1.0444581967 1.0561999583 1.0678149554 1.0792754794 1.0905548551 1.101627645 1.1124698245 