# vtk DataFile Version 5.1
vtk output
ASCII
DATASET POLYDATA
POINTS 252 float
-0.193806 0.712677 0.055345 -0.176722 0.763977 -0.027403 -0.212438 0.711088 0.024445 
-0.188295 0.69618 0.082327 -0.185387 0.722757 0.017994 -0.160572 0.657317 -0.033762 
-0.17243 0.665197 -0.013022 -0.20516 0.607559 0.00066 -0.174579 0.694419 0.046319 
-0.170674 0.651185 0.113293 -0.182424 0.706635 0.128183 -0.203854 0.68838 0.112041 
-0.240962 0.5167 0.055644 -0.186474 0.675913 -0.051834 -0.225999 0.521231 0.11903 
-0.196482 0.544892 0.084368 -0.195881 0.545856 0.033689 -0.22363 0.510975 -0.000782 
-0.18342 0.529939 0.133615 -0.13082 0.422292 0.140713 -0.175298 0.516054 -0.007554 
-0.144995 0.422743 0.190829 -0.14053 0.38604 -0.005537 -0.209418 0.42042 0.189367 
-0.156917 0.35584 0.136848 0.633592 0.44318 -0.12147 -0.275838 0.393259 -0.027663 
-0.277323 0.413641 0.161007 0.566726 0.449103 -0.026494 -0.201516 0.304923 0.185295 
-0.231632 0.369791 -0.041991 -0.278788 0.332137 0.021568 -0.271345 0.257539 0.146759 
0.5757 0.398623 -0.118527 0.477439 0.364504 0.052736 0.433662 0.336189 -0.080934 
-0.289235 0.293505 0.103695 0.4432 0.347048 -0.004213 -0.056992 0.292003 0.01401 
-0.155167 0.265875 -0.009111 0.604911 0.327083 -0.089175 0.659528 0.344802 -0.090976 
-0.152891 0.255298 0.126154 -0.29942 0.194976 0.078843 0.371938 0.264419 0.041017 
0.493171 0.249445 0.010991 0.531957 0.276096 0.079953 0.44235 0.296897 0.042252 
-0.225443 0.253253 0.002612 -0.293036 0.222496 -0.023236 0.481294 0.284624 -0.101289 
-0.186337 0.207019 0.15182 -0.039447 0.277651 0.108361 -0.235642 0.204455 0.129104 
0.334341 0.264674 -0.010473 0.149364 0.208452 -0.03541 -0.064197 0.279333 -0.092979 
0.545791 0.366062 0.055755 -0.595859 0.165835 0.194982 -0.27051 0.195394 -0.104324 
-0.417932 0.183689 0.047934 -0.42965 0.209504 -0.000928 -0.663447 0.176622 0.070955 
0.265856 0.216416 0.043158 0.47718 0.233613 -0.076581 0.617689 0.236589 -0.059978 
0.676006 0.254417 -0.062943 -0.562307 0.165053 0.107027 0.205807 0.207798 -0.011994 
0.152624 0.208144 0.027112 -0.331959 0.184183 -0.013596 -0.7129 0.166207 0.156319 
-0.18739 0.208523 -0.120888 -0.076921 0.24425 -0.160971 -0.02244 0.216221 0.196714 
0.530531 0.222879 -0.01219 -0.417807 0.144838 0.028536 0.598309 0.214327 0.030613 
-0.370522 0.116496 -0.022804 -0.595854 0.158653 0.058948 -0.285175 0.112509 0.192792 
-0.429634 0.16217 -0.011939 -0.536645 0.135852 0.121222 0.148702 0.180624 0.108849 
-0.527548 0.106448 0.0824 0.229216 0.173417 0.090154 -0.341937 0.16949 0.057204 
0.076498 0.21599 -0.11281 -0.026907 0.095818 0.27108 0.131303 0.12268 0.178782 
-0.110503 0.180263 0.233751 -0.083312 0.101479 -0.277792 0.112008 0.168562 -0.17289 
-0.334131 0.147925 -0.088147 0.393866 0.176319 0.03786 0.364022 0.181529 -0.01092 
-0.104037 0.065637 0.285142 -0.635933 0.052868 0.056387 -0.369551 0.111394 0.075906 
-0.593238 0.040306 0.153493 0.297037 0.198817 -0.009472 -0.668971 0.101955 0.215694 
0.222177 0.099408 0.100797 -0.565804 0.103735 0.051428 -0.719449 0.051177 0.117774 
0.245855 0.112167 -0.008317 0.220909 0.141244 -0.216017 -0.162562 0.149755 -0.206845 
-0.378056 0.053644 -0.066553 -0.292949 0.07053 -0.180986 0.243316 0.07805 0.067826 
0.275686 0.137477 -0.135348 0.00599 0.18925 -0.197901 -0.349996 0.057641 0.15064 
0.249091 0.093168 -0.064859 -0.390546 0.010526 0.072535 0.280616 0.063195 -0.213995 
0.192106 0.006224 0.180306 0.134957 0.034036 0.213679 -0.187766 0.029528 -0.24557 
0.076647 0.048095 -0.239042 -0.202745 0.048299 0.244548 -0.387035 -0.034387 -0.033433 
0.128324 -0.000457 -0.241135 0.222143 -0.018188 0.289567 0.165518 -0.035243 0.295122 
0.237551 0.015656 -0.264035 0.226915 -0.045234 0.389899 0.185762 -0.061549 0.378974 
0.274968 -0.121049 0.454558 0.265902 -0.000302 0.05011 -0.341158 0.017293 -0.139449 
0.104916 -0.022987 0.236693 -0.140085 0.023837 -0.286749 0.219982 -0.080189 0.315276 
-0.670134 -0.039359 -0.241745 -0.005236 0.005326 -0.27478 -0.310102 -0.032111 0.197735 
0.177666 -0.077812 0.27978 -0.346895 -0.12667 0.104279 -0.050436 -0.030555 0.28788 
-0.326688 -0.123229 -0.079938 -0.621899 -0.117662 -0.348564 -0.116874 -0.0863 0.280138 
-0.569973 -0.064926 -0.169368 -0.470094 -0.071139 -0.096308 0.282151 -0.016759 -0.213521 
0.202578 -0.116883 0.119024 0.161271 -0.081478 0.192704 -0.581861 -0.027887 -0.231949 
-0.432733 -0.071386 -0.099888 -0.297988 -0.115168 0.180816 0.264971 -0.104922 0.493046 
-0.264045 -0.092166 -0.200775 -0.354431 -0.124955 -0.021916 -0.704317 -0.117313 -0.274291 
-0.414121 -0.103722 -0.099199 -0.380128 -0.083546 -0.00919 0.244686 -0.07913 -0.232445 
0.248475 -0.10451 0.013212 0.218943 -0.140189 0.50649 -0.023815 -0.152574 0.242654 
-0.53988 -0.118883 -0.154747 0.253044 -0.10226 -0.07609 -0.522996 -0.125434 -0.200129 
-0.547833 -0.122751 -0.281241 0.201249 -0.144077 0.476238 0.04829 -0.203958 0.166841 
-0.632701 -0.133819 -0.181714 0.419162 -0.207206 0.001181 -0.025987 -0.114388 -0.256697 
0.222064 -0.155257 0.453973 0.281657 -0.092443 -0.168407 -0.30053 -0.167667 -0.097233 
0.196747 -0.160374 -0.114851 -0.148952 -0.11073 -0.26704 -0.318715 -0.195114 0.025323 
-0.6223 -0.168232 -0.327823 -0.074259 -0.228931 0.194978 -0.574917 -0.168714 -0.217401 
-0.033681 -0.21074 -0.214753 -0.261255 -0.193875 0.135567 -0.664951 -0.18477 -0.255907 
-0.199328 -0.14272 -0.206195 0.178387 -0.197985 0.046341 -0.138304 -0.257608 -0.165779 
0.278011 -0.227639 0.025234 0.10442 -0.153535 -0.198256 0.304514 -0.18914 -0.064035 
-0.127633 -0.191556 0.221451 -0.229464 -0.242341 0.055956 0.381618 -0.231872 0.514011 
-0.228384 -0.205345 -0.119087 0.168352 -0.210524 -0.038091 -0.159705 -0.264562 0.113985 
0.380184 -0.224818 -0.062934 0.356405 -0.177453 -0.041442 0.556233 -0.213818 0.026554 
0.354248 -0.25734 -0.048969 -0.254723 -0.258454 0.03706 0.648376 -0.22966 -0.097868 
0.597168 -0.207562 -0.049639 0.314822 -0.220029 0.506293 -0.225187 -0.270945 -0.127932 
0.693992 -0.213911 -0.086562 0.361096 -0.251848 0.0256 -0.291282 -0.296871 -0.13514 
0.491797 -0.220551 -0.090637 -0.191883 -0.279426 -0.084668 0.55206 -0.332497 0.051077 
-0.023087 -0.251971 -0.169977 -0.035635 -0.290422 0.085002 0.041567 -0.280005 -0.05786 
-0.040394 -0.306067 -0.055634 0.326444 -0.243121 0.545824 0.613979 -0.208271 0.000741 
-0.122215 -0.31313 0.033572 0.480895 -0.326852 0.026072 -0.189004 -0.416058 -0.138014 
0.67924 -0.298647 -0.107947 -0.320066 -0.305187 0.02867 0.497268 -0.365494 -0.048301 
0.61264 -0.312497 -0.114679 -0.1995 -0.326998 0.041234 -0.185052 -0.45563 0.083112 
-0.316972 -0.30192 -0.102644 0.603935 -0.368225 -0.130695 -0.278952 -0.434342 -0.108329 
0.476757 -0.304429 -0.132952 0.669626 -0.360074 -0.137995 -0.242546 -0.384162 0.113017 
-0.266983 -0.472219 0.09347 -0.218417 -0.494969 0.090396 0.587855 -0.404641 -0.03925 
0.515454 -0.391259 0.038731 -0.306031 -0.426678 -0.043365 -0.22121 -0.578166 0.035999 
-0.217589 -0.54053 -0.030535 -0.237993 -0.625228 -0.085491 -0.235631 -0.554591 0.008779 
-0.222491 -0.634275 0.04221 -0.26092 -0.707291 -0.113207 -0.256628 -0.531348 -0.031655 
-0.254518 -0.611417 -0.036081 -0.245662 -0.578258 0.030198 -0.230723 -0.567392 -0.089212 
-0.227192 -0.729197 -0.068464 -0.219668 -0.746091 -0.00897 -0.26136 -0.515506 -0.06302 
-0.255272 -0.723058 0.009482 -0.234219 -0.714864 -0.029635 -0.215137 -0.696891 -0.050019 

POLYGONS 501 1500
OFFSETS vtktypeint64
0 3 6 9 12 15 18 21 24 
27 30 33 36 39 42 45 48 51 
54 57 60 63 66 69 72 75 78 
81 84 87 90 93 96 99 102 105 
108 111 114 117 120 123 126 129 132 
135 138 141 144 147 150 153 156 159 
162 165 168 171 174 177 180 183 186 
189 192 195 198 201 204 207 210 213 
216 219 222 225 228 231 234 237 240 
243 246 249 252 255 258 261 264 267 
270 273 276 279 282 285 288 291 294 
297 300 303 306 309 312 315 318 321 
324 327 330 333 336 339 342 345 348 
351 354 357 360 363 366 369 372 375 
378 381 384 387 390 393 396 399 402 
405 408 411 414 417 420 423 426 429 
432 435 438 441 444 447 450 453 456 
459 462 465 468 471 474 477 480 483 
486 489 492 495 498 501 504 507 510 
513 516 519 522 525 528 531 534 537 
540 543 546 549 552 555 558 561 564 
567 570 573 576 579 582 585 588 591 
594 597 600 603 606 609 612 615 618 
621 624 627 630 633 636 639 642 645 
648 651 654 657 660 663 666 669 672 
675 678 681 684 687 690 693 696 699 
702 705 708 711 714 717 720 723 726 
729 732 735 738 741 744 747 750 753 
756 759 762 765 768 771 774 777 780 
783 786 789 792 795 798 801 804 807 
810 813 816 819 822 825 828 831 834 
837 840 843 846 849 852 855 858 861 
864 867 870 873 876 879 882 885 888 
891 894 897 900 903 906 909 912 915 
918 921 924 927 930 933 936 939 942 
945 948 951 954 957 960 963 966 969 
972 975 978 981 984 987 990 993 996 
999 1002 1005 1008 1011 1014 1017 1020 1023 
1026 1029 1032 1035 1038 1041 1044 1047 1050 
1053 1056 1059 1062 1065 1068 1071 1074 1077 
1080 1083 1086 1089 1092 1095 1098 1101 1104 
1107 1110 1113 1116 1119 1122 1125 1128 1131 
1134 1137 1140 1143 1146 1149 1152 1155 1158 
1161 1164 1167 1170 1173 1176 1179 1182 1185 
1188 1191 1194 1197 1200 1203 1206 1209 1212 
1215 1218 1221 1224 1227 1230 1233 1236 1239 
1242 1245 1248 1251 1254 1257 1260 1263 1266 
1269 1272 1275 1278 1281 1284 1287 1290 1293 
1296 1299 1302 1305 1308 1311 1314 1317 1320 
1323 1326 1329 1332 1335 1338 1341 1344 1347 
1350 1353 1356 1359 1362 1365 1368 1371 1374 
1377 1380 1383 1386 1389 1392 1395 1398 1401 
1404 1407 1410 1413 1416 1419 1422 1425 1428 
1431 1434 1437 1440 1443 1446 1449 1452 1455 
1458 1461 1464 1467 1470 1473 1476 1479 1482 
1485 1488 1491 1494 1497 1500 
CONNECTIVITY vtktypeint64
65 41 66 123 106 126 165 179 177 
142 165 177 135 149 142 135 142 155 
155 142 177 182 155 177 33 25 41 
41 40 33 120 92 123 91 136 133 
175 133 136 107 91 119 119 91 133 
110 102 130 117 130 102 209 217 234 
99 104 97 71 62 104 71 58 62 
84 82 99 82 58 99 67 58 82 
137 115 139 113 115 137 244 249 240 
240 232 244 236 232 240 224 232 236 
231 244 232 230 231 232 230 220 231 
224 223 230 199 230 223 199 220 230 
151 139 181 137 139 151 80 113 137 
80 98 113 27 36 32 224 230 232 
181 194 189 189 151 181 51 80 90 
29 27 32 23 27 29 21 23 29 
178 194 216 178 189 194 24 21 29 
19 21 24 167 178 211 74 52 90 
244 239 237 239 235 242 235 239 244 
231 235 244 235 231 220 199 176 220 
190 176 199 181 190 194 181 176 190 
139 176 181 80 43 98 80 53 43 
32 43 53 32 36 43 36 27 31 
237 224 236 218 224 237 218 223 224 
194 190 216 53 80 51 51 48 53 
42 39 48 42 48 51 24 29 53 
48 24 53 23 14 27 18 23 21 
18 14 23 9 10 18 10 14 18 
10 11 14 90 42 51 52 42 90 
19 18 21 15 18 19 38 42 52 
184 167 211 83 89 102 85 83 102 
83 74 89 52 74 83 130 117 147 
29 32 53 211 178 216 74 88 89 
147 167 184 147 148 167 148 161 167 
17 20 26 20 30 26 20 22 30 
30 22 48 30 48 49 48 39 72 
48 72 59 192 183 185 192 185 208 
203 192 208 208 185 216 12 17 26 
31 26 30 49 48 59 93 49 59 
70 49 93 141 153 173 173 153 192 
173 192 206 192 203 206 203 223 218 
218 206 203 227 206 218 248 245 241 
78 70 93 93 108 78 122 108 131 
225 173 206 225 206 227 122 141 150 
145 162 157 156 150 141 150 156 164 
102 118 117 102 89 118 89 88 118 
147 117 148 148 117 134 117 124 134 
101 104 99 101 71 104 58 101 99 
58 71 101 121 80 137 143 151 189 
143 137 151 121 90 80 121 137 143 
96 121 143 96 90 121 178 167 161 
161 189 178 161 143 189 161 140 143 
140 96 143 88 96 140 88 90 96 
88 74 90 148 140 161 132 140 148 
88 140 132 118 88 132 138 132 148 
125 132 138 125 118 132 148 134 138 
127 125 128 127 118 125 118 124 117 
118 127 124 166 134 171 138 134 166 
149 165 142 119 183 153 153 109 119 
119 175 183 119 133 175 109 107 119 
72 73 107 175 170 180 175 136 170 
73 91 107 180 170 187 136 123 170 
112 73 87 91 73 112 123 187 170 
112 92 120 112 87 92 185 175 180 
128 138 166 128 125 138 124 127 129 
124 129 134 43 70 86 36 31 49 
31 30 49 43 36 49 43 49 70 
203 190 223 235 227 248 227 218 245 
235 248 242 248 227 245 245 218 237 
237 242 238 238 242 241 237 238 245 
242 248 241 243 251 246 238 241 245 
61 60 86 70 61 86 81 61 78 
60 76 86 61 70 78 76 81 78 
86 76 98 76 78 98 98 78 108 
98 108 115 108 122 115 115 122 157 
122 131 141 157 154 139 156 141 154 
176 139 154 154 141 173 154 173 176 
176 173 225 220 176 225 220 225 235 
235 225 227 81 76 84 157 122 145 
145 122 150 154 157 156 134 129 171 
128 166 160 127 128 152 171 129 202 
127 152 129 152 128 160 171 202 214 
166 171 214 214 160 166 129 191 202 
160 214 152 129 152 191 214 202 191 
191 152 214 38 52 69 69 52 83 
186 184 193 159 147 184 159 130 147 
105 110 130 110 85 102 94 85 110 
63 83 85 63 69 83 186 198 205 
205 169 186 159 184 186 169 159 186 
94 110 105 95 94 105 44 63 85 
205 221 217 205 198 221 169 205 217 
94 44 85 234 221 233 217 221 234 
197 169 217 209 234 233 215 197 209 
57 34 46 212 184 211 65 75 64 
50 40 65 28 35 37 28 33 35 
226 229 233 37 35 44 54 50 95 
64 94 95 55 114 111 35 50 54 
55 111 106 146 114 163 146 163 172 
172 163 174 87 55 92 92 55 106 
158 174 187 210 187 174 210 174 212 
56 87 73 56 55 87 180 187 210 
13 1 5 5 1 6 39 56 72 
72 56 73 180 210 185 1 13 7 
59 72 107 183 175 185 93 59 109 
59 107 109 109 153 131 141 131 153 
192 153 183 93 109 131 108 93 131 
149 144 150 149 150 164 165 149 164 
149 135 144 144 135 168 144 168 162 
228 222 226 207 222 228 222 229 226 
219 233 229 222 200 219 204 219 200 
41 57 66 41 25 57 25 28 57 
164 162 179 156 157 162 145 144 162 
145 150 144 156 162 164 34 28 37 
201 204 200 77 75 65 66 77 65 
31 27 26 12 26 27 14 12 27 
251 250 246 190 208 216 22 24 48 
16 19 20 16 17 12 15 12 14 
16 15 19 9 18 15 16 8 15 
14 3 15 3 9 15 0 12 15 
11 3 14 8 0 15 42 38 39 
19 24 22 20 19 22 10 3 11 
3 10 9 211 216 213 213 212 211 
193 184 212 159 169 196 196 163 159 
68 54 100 54 68 63 54 63 44 
221 198 228 195 228 198 195 207 228 
196 207 195 188 196 195 247 240 249 
62 58 67 242 237 243 237 236 244 
239 242 243 237 239 251 250 239 243 
243 237 251 251 239 250 236 240 247 
244 247 249 243 246 250 43 86 98 
113 98 115 139 115 157 61 67 60 
76 60 84 67 61 79 67 82 60 
79 61 103 60 82 84 97 84 99 
62 67 79 97 62 79 79 103 97 
103 84 97 104 62 97 196 169 207 
95 50 64 54 95 100 47 37 44 
44 35 54 201 207 197 169 197 207 
64 45 94 75 45 64 45 47 94 
34 47 45 47 34 37 226 233 221 
215 209 233 204 215 233 201 200 222 
201 222 207 215 201 197 77 46 75 
45 75 46 77 57 46 28 34 57 
219 204 233 201 215 204 57 77 66 
103 81 84 61 81 103 47 44 94 
34 45 46 5 16 20 13 5 20 
17 13 20 7 13 17 5 6 16 
6 7 16 16 4 8 4 16 12 
12 2 4 6 1 7 0 2 12 
2 8 4 8 2 0 216 185 213 
185 210 213 210 212 213 39 38 56 
174 193 212 38 69 55 56 38 55 
174 198 193 55 69 68 174 188 198 
163 188 174 163 196 188 130 159 163 
163 114 130 105 130 114 100 95 105 
55 105 114 55 68 105 68 100 105 
63 68 69 188 195 198 16 7 17 
193 198 186 187 126 158 123 126 187 
92 106 123 158 172 174 158 146 172 
158 126 146 126 116 146 146 111 114 
116 111 146 165 164 179 162 168 179 
177 179 182 168 135 155 168 155 182 
179 168 182 40 41 65 222 219 229 
28 25 33 50 33 40 35 33 50 
106 111 116 106 116 126 209 197 217 
50 65 64 228 226 221 91 112 136 
190 199 223 190 203 208 244 236 247 
123 136 120 136 112 120 
POINT_DATA 252
SCALARS k float
LOOKUP_TABLE default
2.02125 5.05043 0.886162 2.35749 3.02583 0.409043 -0.101537 -0.0589068 0.158322 
0.252593 2.98285 0.569407 -0.798208 0.736994 -0.793881 -5.13412 -4.93605 -0.857909 
-1.08274 0.263347 -0.850758 1.04634 0.747568 0.203875 0.0247817 2.48472 0.878801 
0.639109 0.950596 0.438251 -0.05795 -0.303495 0.234405 0.0427251 0.403757 0.310295 
-0.0168509 -0.106633 0.157745 -0.051323 0.0052352 0.116738 0.226182 -0.713579 -0.325332 
-1.16581 1.0003 -0.43115 -2.68517 -1.25159 0.225781 -0.101591 0.243489 -2.843 
-0.735744 -0.687896 0.245856 0.399517 1.32473 0.138944 -0.688185 0.830462 1.17989 
-0.194884 -0.177492 0.0878347 1.79755 -0.448539 -0.825704 -0.168061 -1.19306 1.43517 
-0.0562166 0.256997 0.181908 0.0487521 -1.9065 1.23512 -1.29594 -0.641177 0.214822 
-0.364139 -0.54905 -0.335935 -0.447701 -0.271293 -0.832072 0.0158291 0.146099 0.0840331 
0.20333 0.328243 -0.33478 0.164362 0.012522 -0.529968 0.195581 1.04119 -0.748728 
1.16738 8.60691e-05 1.28185 -0.20196 -0.495561 1.82022 -1.44941 0.621871 0.00320518 
0.124335 0.172302 -1.02957 0.752404 0.0366052 0.153452 -0.379211 0.197953 0.317108 
-0.943024 -0.861376 -0.134893 0.00601482 0.00236738 -2.05382 -0.307511 0.126019 -0.508883 
0.609381 0.0390405 0.0869824 -0.892745 0.236214 0.129843 -1.27384 0.320953 -0.28271 
1.41653 0.0242283 0.171738 -0.558465 0.189163 0.115651 -1.38125 1.55818 0.221069 
-0.165273 -0.483462 0.136798 0.128123 -1.55917 0.455918 -0.558908 0.16577 0.515449 
0.257777 -0.373049 1.26801 -1.21004 -0.662572 0.431884 -1.17248 0.768424 0.114606 
-0.58022 -1.36291 -0.769898 0.578377 0.406498 0.0768054 0.582173 -0.676994 0.0513512 
-0.236762 0.633356 -0.641097 -0.846279 0.341454 -0.840499 1.11973 0.170812 0.397886 
0.136154 0.0893953 1.141 -0.136947 -0.922276 0.25847 -0.248097 -0.162586 -0.148038 
0.132787 -2.16253 3.47602 -0.558472 -0.490277 0.0740883 -0.3205 -0.642608 0.337004 
-0.790794 -0.313325 0.28124 -0.263164 0.0241433 -1.24448 2.39008 -0.236616 0.347668 
0.0102092 -0.970288 0.551337 0.13769 0.155813 0.116525 0.167724 2.19294 0.510335 
0.310544 -0.633971 0.899356 -0.204886 -0.0322975 -0.0160586 -0.174507 -0.286903 0.634053 
0.203811 0.181447 0.102427 0.666816 2.09371 0.799456 0.481808 -0.111615 0.629822 
1.64868 0.0501939 -1.21071 -3.6565 -0.133334 -2.79164 -0.0327945 5.456 -2.48395 
0.0317405 -1.87682 -0.909915 3.92327 4.27218 -0.372217 1.9567 1.79461 0.266276 

FIELD FieldData 7
h 1 252 float
0.608837 0.685073 2.00921 1.2324 3.69125 -1.02396 0.608926 1.11534 -0.602247 
-0.151209 0.833143 2.09765 3.32996 0.184096 2.84282 -2.12213 -3.78893 2.41141 
1.2732 0.373127 3.35243 1.95586 -2.52811 3.42944 -2.62227 2.02579 2.4824 
3.64884 1.74622 1.15759 0.373536 2.61729 1.2489 0.181591 2.64343 2.0774 
2.75245 0.666379 3.03852 2.83114 0.114757 0.352791 1.58724 1.46802 0.133879 
1.17165 1.51399 0.832257 0.105508 0.598902 0.578021 1.33694 1.80327 0.335276 
1.09176 2.52378 2.2213 4.10815 3.43245 1.09857 -2.4864 0.621095 0.245568 
0.551731 0.580725 -0.534091 -0.113189 2.54276 0.942479 1.24974 0.709476 9.64209 
1.26505 2.02289 0.783734 3.77634 -1.02816 6.0592 0.73962 -0.431037 1.20595 
0.38835 -7.22737 0.308579 -3.83014 -0.123751 0.375244 2.34704 1.34592 0.635655 
1.63285 2.82194 2.08361 1.09842 -0.132973 0.531707 2.70684 1.93942 1.59834 
-2.85265 -0.0358915 6.82877 0.0264763 -0.677744 7.12207 -0.050843 2.03649 2.04278 
2.44769 1.80665 -1.08045 1.83175 2.48668 1.67237 -0.497631 2.11183 4.1751 
0.793854 0.284194 2.17372 2.19482 1.93588 2.60664 2.13129 0.857721 0.726457 
2.35921 0.0720681 -0.245227 1.34336 -0.420021 2.13575 1.87398 2.95039 0.155464 
1.52034 2.66119 1.67266 -0.777511 1.25873 2.78832 0.89053 0.851982 2.32761 
1.71551 0.47484 -0.320847 0.445115 1.6226 2.17456 -0.565637 1.95583 0.074868 
1.7123 2.01905 1.62799 2.15568 0.48928 1.71674 -1.28269 0.459992 2.16527 
0.989315 0.723756 -1.24382 4.58579 0.103593 0.996021 0.225427 -0.385315 2.2874 
0.29564 2.4028 2.24166 2.26091 2.19145 0.805357 1.32291 1.5989 1.41236 
1.58974 1.29761 1.75095 1.91454 -0.146922 1.7248 0.887631 1.87242 -0.220637 
2.12948 1.3266 0.648917 0.661511 1.18063 1.82736 0.150587 0.564107 0.787094 
1.69992 0.452614 -0.788262 -2.83617 -0.907236 0.311273 1.59716 1.92965 0.0852203 
1.25807 3.34734 1.19533 2.33596 0.574941 2.07034 2.1361 0.806899 2.45869 
2.449 1.29402 1.34064 10.2882 1.19525 2.36934 1.2432 -2.87062 -1.22662 
3.0098 0.381522 2.87937 0.877377 2.46961 1.86979 1.13932 4.13117 0.954828 
1.896 3.55285 0.814744 -1.88945 0.561624 0.546423 2.19774 1.61715 2.05348 
1.35953 2.16222 0.227551 4.83301 1.65842 2.62676 1.42903 -0.194432 -2.24123 

kmin 1 252 float
2.37335 1.31485 4.86166 2.66811 8.52834 0.242497 1.3111 2.62374 1.05246 
1.18686 3.18858 4.5836 7.67629 1.26108 6.39539 -0.643216 -0.80381 5.67923 
3.44212 4.20666 11.1224 7.4322 1.18749 6.0942 4.15437 4.02673 5.0904 
7.32743 4.66448 3.08236 2.05348 5.25961 1.79243 2.13363 7.91325 6.45243 
5.48357 4.23093 5.36727 4.16635 2.06771 1.15553 1.95108 2.67633 0.906649 
2.71599 7.20311 2.33821 1.0962 1.24907 1.31835 2.9634 2.73203 2.25337 
2.9752 4.36611 3.45591 6.21314 8.378 1.80843 -0.644208 0.926101 2.04961 
1.58626 1.62969 0.867655 0.632955 8.59405 3.12406 2.35329 1.70318 17.6611 
1.91226 2.2454 1.98947 14.4295 0.925149 9.69897 1.30404 0.474793 2.59281 
2.42509 -0.196068 1.55831 1.843 1.14355 1.14163 4.33757 2.48505 2.30682 
2.77197 3.22254 3.7344 1.77769 0.332725 2.49785 4.27311 6.03375 2.44766 
3.48516 1.62108 15.9195 1.4205 0.721798 14.5034 1.45974 3.75813 2.83057 
4.23591 2.2548 0.224915 2.19141 2.76413 2.17906 1.09988 3.10785 6.02749 
2.21788 1.93051 2.56008 3.03687 2.9376 4.3397 3.78956 1.49968 3.03327 
4.53235 1.19741 3.48848 3.36243 0.671088 2.86207 2.31436 3.7169 1.20093 
4.31854 3.32032 1.92968 0.408217 1.65783 3.70834 1.21229 2.80446 2.84322 
3.58305 1.12146 0.459836 1.96288 2.56255 5.74064 2.15712 3.1458 1.32932 
2.4624 5.08278 3.41908 5.65271 0.853523 3.31444 -0.436767 2.27529 2.48023 
1.86006 2.5319 0.0832651 13.1798 0.967795 2.08807 1.55507 0.446553 3.24037 
1.72466 2.86776 4.18233 4.89418 2.37995 1.20175 4.21024 2.62716 5.19022 
2.02616 2.80762 4.45772 2.67777 1.5013 2.54599 2.23402 3.43392 0.456165 
3.76714 2.56566 1.85368 1.21618 3.04665 3.79683 1.35063 1.96493 4.77985 
4.70743 1.15089 1.91221 -1.55378 -0.139669 0.588533 3.5931 5.21863 1.22102 
3.18402 4.69216 4.01089 4.77513 0.859675 3.86925 4.01461 1.70138 5.47813 
3.74659 3.29636 6.44971 14.7995 1.9332 6.50835 4.33694 3.15279 1.81102 
5.43311 2.11707 5.5651 2.7364 5.08683 3.66694 3.20584 8.14638 2.31623 
6.80556 7.18855 3.65823 0.853133 1.10716 2.31921 4.45256 4.25602 5.24279 
3.62913 5.45164 1.38019 9.48043 3.23785 6.21424 3.31751 0.0262904 -0.231475 

kmax 1 252 float
-1.15568 0.0553 -0.843232 -0.203313 -1.14583 -2.29041 -0.0932437 -0.39306 -2.25696 
-1.48928 -1.52229 -0.388294 -1.01638 -0.892888 -0.709736 -3.60104 -6.77405 -0.856403 
-0.895728 -3.46041 -4.41758 -3.52047 -6.2437 0.76468 -9.39891 0.0248484 -0.125604 
-0.0297557 -1.17205 -0.767172 -1.30641 -0.025032 0.705361 -1.77045 -2.6264 -2.29763 
0.0213246 -2.89817 0.70977 1.49593 -1.8382 -0.449944 1.22341 0.259702 -0.638891 
-0.372685 -4.17513 -0.673696 -0.885187 -0.0512612 -0.162307 -0.289518 0.87451 -1.58282 
-0.791675 0.681444 0.98669 2.00316 -1.5131 0.388713 -4.3286 0.316088 -1.55847 
-0.482802 -0.468236 -1.93584 -0.859333 -3.50853 -1.2391 0.146195 -0.284225 1.62307 
0.617838 1.80038 -0.422003 -6.87678 -2.98147 2.41943 0.175203 -1.33687 -0.180902 
-1.64839 -14.2587 -0.941153 -9.50328 -1.39106 -0.391142 0.356515 0.206793 -1.03551 
0.493727 2.42135 0.432813 0.419157 -0.598671 -1.43444 1.14056 -2.15491 0.749032 
-9.19046 -1.69286 -2.26193 -1.36754 -2.07729 -0.259242 -1.56143 0.314853 1.25499 
0.659458 1.3585 -2.38582 1.47209 2.20922 1.16567 -2.09514 1.1158 2.3227 
-0.630168 -1.36213 1.78736 1.35277 0.934171 0.87358 0.473014 0.21576 -1.58036 
0.186075 -1.05328 -3.97893 -0.675712 -1.51113 1.40944 1.43361 2.18387 -0.889998 
-1.27786 2.00205 1.41565 -1.96324 0.859626 1.8683 0.568765 -1.1005 1.81201 
-0.152023 -0.171785 -1.10153 -1.07265 0.682657 -1.39152 -3.2884 0.765872 -1.17958 
0.962204 -1.04468 -0.163088 -1.34134 0.125038 0.119044 -2.12861 -1.35531 1.85032 
0.118573 -1.08438 -2.5709 -4.0082 -0.760609 -0.0960268 -1.10422 -1.21718 1.33443 
-1.13338 1.93784 0.300985 -0.372355 2.00295 0.408961 -1.56441 0.570641 -2.3655 
1.15331 -0.212404 -0.95582 1.15131 -1.79514 0.903605 -0.458761 0.310918 -0.897439 
0.491816 0.0875297 -0.555851 0.10684 -0.6854 -0.142109 -1.04945 -0.836713 -3.20566 
-1.30759 -0.245656 -3.48873 -4.11857 -1.6748 0.0340122 -0.398783 -1.35933 -1.05057 
-0.667886 2.00252 -1.62023 -0.103219 0.290207 0.271438 0.257604 -0.0875839 -0.560747 
1.15141 -0.708313 -3.76843 5.77689 0.457306 -1.76967 -1.85054 -8.89402 -4.26426 
0.586491 -1.35403 0.193641 -0.981646 -0.1476 0.0726488 -0.927205 0.115959 -0.406578 
-3.01356 -0.0828376 -2.02874 -4.63204 0.0160865 -1.22636 -0.0570805 -1.02172 -1.13582 
-0.910075 -1.12719 -0.925093 0.185586 0.0789858 -0.960721 -0.459443 -0.415155 -4.25099 

hks 16 252 double
0.6201014092 0.62415107883 0.62831960654 0.63259431671 0.63696214996 0.64140989723 0.64592442186 0.65049286345 0.65510281863 
0.65974249475 0.66440083408 0.66906760729 0.67373347628 0.67839002775 0.68302977975 0.68764616437 0.76689870182 0.76315312753 
0.75948982361 0.75593882022 0.75252883971 0.74928701941 0.74623865666 0.74340697827 0.74081293641 0.73847503263 0.7364091721 
0.73462854959 0.73314356892 0.73196179733 0.73108795575 0.73052394582 0.62411537401 0.62784825944 0.63173686438 0.63576532824 
0.63991735035 0.64417648829 0.64852643906 0.65295129545 0.65743577161 0.66196539323 0.66652664945 0.67110710533 0.67569547515 
0.68028165855 0.68485674254 0.68941297348 0.66643310191 0.66600977626 0.66568296558 0.6654712846 0.66539209037 0.66546127145 
0.66569306113 0.66609987723 0.6666921908 0.66747842543 0.66846488863 0.66965573601 0.67105296871 0.67265646383 0.6744640371 
0.67647153644 0.61738246622 0.62187096904 0.62643430261 0.63106076118 0.6357385912 0.64045619015 0.64520229022 0.64996612185 
0.65473755302 0.6595072015 0.66426651826 0.66900784171 0.67372442347 0.67841042748 0.68306090513 0.68767174997 0.68657837872 
0.68625137963 0.68590969683 0.68557715446 0.68527696855 0.68503147445 0.68486187221 0.68478799292 0.6848280889 0.68499865014 
0.6853142491 0.6857874156 0.68642854332 0.68724582877 0.68824524344 0.68943053914 0.71754894863 0.71685222275 0.71614565817 
0.7154533357 0.7147987262 0.71420442332 0.71369189343 0.71328124544 0.71299102327 0.71283802319 0.71283713811 0.71300123047 
0.7133410354 0.71386509505 0.71457972496 0.71548901287 0.71532973763 0.71453139414 0.71372221637 0.71292726073 0.7121709196 
0.71147664469 0.7108666888 0.71036186918 0.709981355 0.70974248129 0.70966059127 0.70974890894 0.71001844308 0.71047792398 
0.71113377327 0.7119901073 0.61545522854 0.620400139 0.62538293038 0.6303939717 0.63542370503 0.64046279201 0.64550224852 
0.65053356391 0.65554880145 0.66054067818 0.66550262253 0.67042880967 0.67531417496 0.68015440701 0.68494592239 0.6896858247 
0.64833915091 0.64880279672 0.64933239255 0.64994546096 0.65065839941 0.65148627432 0.65244263917 0.65353937931 0.6547865855 
0.65619245768 0.65776324007 0.6595031882 0.66141456772 0.6634976847 0.66575094615 0.66817094936 0.66340957285 0.66230673281 
0.66132386368 0.66048098608 0.65979668011 0.65928787526 0.65896966496 0.65885514829 0.65895530082 0.65927887634 0.65983234082 
0.66061983954 0.66164319799 0.66290195645 0.6643934378 0.66611284736 0.67562079826 0.673996083 0.67251127446 0.67118663691 
0.67004095516 0.66909132138 0.6683529458 0.66783899395 0.66756045261 0.66752602666 0.66774206831 0.66821254004 0.66893901214 
0.6699206949 0.67115450537 0.67263516749 0.53155410665 0.53808414283 0.54459733537 0.55108424267 0.55753572128 0.56394301678 
0.57029784788 0.57659248153 0.5828197974 0.58897334021 0.59504735891 0.60103683216 0.60693748001 0.61274576217 0.61845886359 
0.6240746686 0.70691423508 0.70512348618 0.70335821444 0.70164584655 0.70001284598 0.69848442536 0.69708428043 0.69583434825 
0.6947545924 0.69386281752 0.69317451506 0.69270274225 0.69245803551 0.69244835961 0.69267909309 0.69315305013 0.56631646299 
0.56925090301 0.57216857997 0.57508198704 0.57800322429 0.58094380416 0.58391447295 0.58692505121 0.58998429576 0.5930997854 
0.59627783177 0.59952341638 0.60284015427 0.60623028407 0.60969468393 0.61323291207 0.56872262667 0.57466050721 0.58051343527 
0.58628371645 0.5919739062 0.59758671513 0.60312492094 0.60859128854 0.61398849954 0.61931909182 0.62458540969 0.62978956478 
0.6349334073 0.64001850751 0.64504614669 0.65001731685 0.58116025039 0.58714152554 0.59298506105 0.59869486073 0.60427564335 
0.60973271614 0.61507184805 0.62029914481 0.62542092804 0.63044362016 0.63537363641 0.64021728556 0.64498067995 0.64966965604 
0.65428970586 0.65884591986 0.57399649546 0.57824827691 0.58239383897 0.58644419749 0.59041068111 0.5943047296 0.59813769982 
0.6019206826 0.60566433381 0.60937872204 0.61307319483 0.6167562653 0.62043551998 0.62411754867 0.62780789644 0.63151103751 
0.5447369783 0.54779410533 0.55084883817 0.55391221283 0.55699476354 0.56010635403 0.56325602597 0.56645186717 0.56970090129 
0.57300900058 0.57638082252 0.57981977071 0.58332797986 0.58690632443 0.59055444973 0.5942708242 0.41687065817 0.42277923509 
0.42872381321 0.43469622577 0.4406882209 0.44669149291 0.45269772044 0.45869861128 0.4646859534 0.47065167122 0.47658788573 
0.48248697685 0.48834164618 0.49414497806 0.499890497 0.50557221975 0.49159659876 0.49530381133 0.49897707776 0.50262490564 
0.50625571329 0.50987767616 0.51349858322 0.51712570595 0.52076568202 0.52442441553 0.52810699507 0.53181763066 0.53555960987 
0.53933527346 0.54314601001 0.54699226917 0.41139291914 0.4136521231 0.41600933063 0.41846704431 0.42102711012 0.42369067183 
0.42645813778 0.4293291606 0.43230263019 0.43537667957 0.43854870342 0.44181538825 0.44517275345 0.44861620189 0.45214057879 
0.45574023737 0.37809322717 0.37473792561 0.37178271479 0.36923049652 0.3670812275 0.36533200314 0.36397718175 0.3630085458 
0.36241549587 0.36218527287 0.36230320308 0.36275296054 0.36351684115 0.36457604247 0.36591094382 0.36750138097 0.45498778005 
0.45728081678 0.4596131763 0.46199197327 0.46442412515 0.46691622087 0.4694743956 0.47210421411 0.47481056509 0.47759756867 
0.48046849872 0.48342572167 0.48647065271 0.48960373025 0.49282440902 0.49613117158 0.33327132097 0.33133789707 0.32962955967 
0.32815435926 0.32691844182 0.3259260239 0.32517939935 0.32467897667 0.3244233451 0.32440936694 0.32463229312 0.32508589859 
0.32576263376 0.32665378802 0.32774966141 0.32903974028 0.69050272583 0.6963048989 0.70226458021 0.70837309248 0.71462104586 
0.72099847231 0.72749496637 0.73409982906 0.74080221206 0.74759125907 0.75445624186 0.76138668837 0.76837250076 0.77540406149 
0.78247232594 0.78956890036 0.40085599692 0.40468975827 0.40865357734 0.41273815034 0.41693394348 0.42123125305 0.42562026406 