# vtk DataFile Version 5.1
vtk output
ASCII
DATASET POLYDATA
POINTS 252 float
0.42949 0.421472 0.297324 0.403598 0.433655 0.068712 0.48857 0.439625 0.244993 
0.447782 0.399475 0.282486 0.471955 0.47037 0.316618 0.528817 0.483083 0.158342 
0.530459 0.502326 0.206908 0.488801 0.480414 0.254993 0.491433 0.446062 0.207278 
0.375884 0.393032 0.11843 0.456014 0.412505 0.255753 0.39144 0.413236 0.084585 
0.395675 0.381843 0.146435 0.419022 0.387029 0.09658 0.415955 0.363376 0.11518 
0.366761 0.42341 0.023111 0.349371 0.369712 0.166153 0.395673 0.360951 0.153882 
0.37913 0.331258 0.158838 0.358875 0.246411 0.135458 0.42906 0.376689 0.062111 
0.254352 0.315742 0.130163 0.400439 0.30296 -0.03542 0.357765 0.361089 -0.061312 
-0.459333 0.520724 -0.015771 0.724434 0.175459 0.004563 0.277594 0.396487 -0.068202 
0.740569 0.165224 -0.06784 0.287783 0.23074 0.121979 -0.425734 0.441868 0.140082 
0.299867 0.340079 0.150901 0.617276 0.166286 -0.014894 -0.401462 0.45662 0.094147 
-0.412779 0.483331 0.033083 0.244134 0.237847 -0.021707 -0.44444 0.371981 0.155502 
-0.397444 0.379595 0.185287 -0.3787 0.442216 -0.094854 -0.42037 0.493668 -0.162328 
0.310206 0.248259 -0.117717 0.702039 0.076783 0.050402 0.252495 0.264836 -0.11448 
0.618844 0.064918 0.031566 -0.416051 0.387539 0.049486 0.627135 0.14632 0.046436 
-0.330256 0.362379 -0.024233 0.622989 0.144926 -0.088291 -0.490039 0.416348 -0.163834 
-0.376462 0.332958 -0.017847 0.233133 0.232829 0.074852 -0.417172 0.338879 0.187588 
0.191995 0.235649 0.022803 0.181447 0.234425 -0.12625 -0.409285 0.456841 -0.16347 
0.106595 0.277985 -0.057381 0.55864 0.092574 -0.004968 0.755972 0.05274 -0.016512 
0.01324 0.262381 0.000374 -0.486182 0.464133 -0.013987 0.311434 0.206114 0.035865 
0.081858 0.101997 0.219679 -0.30948 0.318667 0.045751 -0.48679 0.322927 0.074513 
0.255571 0.150402 0.058126 -0.291426 0.301235 0.017646 0.088186 0.233071 0.109309 
0.262602 0.159698 0.020396 0.238483 0.186362 -0.099444 0.558108 0.121805 -0.01869 
-0.015022 0.162416 0.170215 0.674439 0.106269 -0.095488 0.58055 0.058468 -0.011336 
-0.108055 0.205147 0.105373 0.567247 0.104624 -0.0765 -0.342643 0.338437 -0.059366 
-0.44616 0.359388 0.077203 0.183602 0.16845 0.162603 0.673273 0.030196 -0.063366 
0.578769 0.056518 -0.062578 0.310234 0.026817 0.109925 -0.197042 0.252076 0.015213 
0.084253 0.253495 -0.175481 0.311608 0.138743 -0.138094 -0.472032 0.266616 0.055049 
-0.124344 0.228177 -0.020437 0.438847 0.041517 -0.054994 -0.399753 0.293058 -0.066971 
0.337817 0.090581 -0.007617 -0.404828 0.293387 -0.038234 0.358584 0.089992 -0.092855 
-0.354435 0.256417 0.036425 0.436067 0.088984 -0.034658 -0.224343 0.256112 0.087028 
-0.163997 0.175309 0.103711 0.091003 0.160894 -0.286525 -0.526339 0.368973 -0.05472 
-0.455418 0.292607 -0.001789 -0.44698 0.321635 -0.109487 -0.544264 0.2956 -0.067988 
-0.273442 0.200629 0.022413 0.444653 0.050447 -0.09074 0.006565 -0.063278 0.225795 
0.00837 0.185916 -0.25677 -0.121454 0.222754 -0.092375 0.173015 -0.000924 0.236083 
-0.12816 0.115827 0.206514 -0.168157 0.059952 0.269019 -0.193574 0.184476 -0.018984 
-0.057459 0.073507 0.219479 -0.221538 0.127401 0.060214 0.367751 0.037443 -0.029137 
0.187932 0.132047 -0.245878 0.372755 0.017235 -0.10663 0.301646 0.097158 -0.204287 
-0.228494 0.142891 -0.038574 -0.211343 0.128238 -0.145072 0.109931 -0.050907 0.24883 
0.346064 -0.055915 -0.190585 -0.213996 0.088683 0.231627 -0.220515 0.152698 -0.251892 
-0.154962 0.130141 -0.202113 -0.093826 -0.054805 0.229271 0.193785 0.018479 -0.299079 
-0.238607 -0.046502 0.240306 0.199263 -0.09042 0.275102 -0.234013 0.012649 0.127361 
-0.170769 -0.048804 0.274619 -0.23778 0.033887 -0.166696 0.246694 -0.044044 0.177049 
-0.26184 0.160799 -0.463527 -0.304961 0.184928 -0.323569 0.027145 0.051633 -0.342978 
0.272912 -0.028017 -0.267891 0.157015 -0.108374 0.237833 0.302384 -0.127725 0.110959 
-0.274254 0.051303 -0.0503 -0.181754 0.039552 -0.228895 -0.250432 0.088891 -0.291034 
-0.316795 0.113722 -0.298309 0.372075 -0.078857 0.018908 -0.255879 0.165081 -0.347106 
-0.260738 -0.070529 0.049076 0.182083 -0.165712 0.170459 -0.301322 0.18012 -0.464439 
0.064983 -0.14993 0.214917 -0.328194 0.133427 -0.43756 0.321185 -0.196427 -0.044424 
0.399936 -0.198986 -0.09669 0.368424 -0.11071 -0.120814 0.290887 -0.178684 0.029007 
0.242162 -0.241377 0.048924 -0.288448 0.106749 -0.449542 -0.062073 -0.049657 -0.316574 
-0.299403 0.002288 -0.523442 -0.283811 0.060628 -0.558046 0.38144 -0.191638 -0.079201 
0.008377 -0.212207 0.16252 -0.234643 -0.071832 -0.163014 -0.65063 -0.066446 0.16142 
-0.274045 -0.044503 -0.035395 -0.25424 0.036512 -0.541793 0.324912 -0.201853 -0.136188 
-0.273264 -0.109439 0.154971 -0.211925 -0.139575 0.211164 -0.303672 -0.111795 0.055879 
0.433453 -0.279098 -0.025333 -0.640539 -0.002871 0.143839 0.365957 -0.255719 -0.047155 
-0.126553 -0.182995 0.148011 0.462789 -0.32051 0.032518 0.107141 -0.243378 0.153734 
0.531835 -0.366235 0.054153 0.113983 -0.125029 -0.306721 -0.63601 -0.018055 0.05959 
-0.413116 -0.086173 0.074828 -0.423527 -0.136126 0.098521 -0.484386 -0.063525 0.033086 
0.189447 -0.124965 -0.295994 0.030495 -0.053336 -0.349362 0.275308 -0.185945 -0.228496 
-0.360255 -0.069819 -0.004877 -0.591754 -0.036551 0.182235 0.482302 -0.419042 0.169956 
-0.241704 -0.143993 0.060831 -0.254499 -0.114953 -0.07884 0.233678 -0.263064 -0.057884 
-0.21789 -0.105011 -0.525623 0.405423 -0.35177 0.028083 -0.373532 -0.155462 0.017838 
-0.075959 -0.175763 -0.271227 0.480355 -0.337794 0.103955 0.539708 -0.429832 0.119343 
-0.345856 -0.151879 0.055184 -0.597044 -0.11921 0.192379 -0.002668 -0.29886 0.074055 
-0.41306 -0.11725 -0.014248 -0.627578 -0.100346 0.012228 -0.631317 -0.126385 0.222209 
0.472966 -0.441677 -0.008091 0.076393 -0.314312 0.032446 -0.229087 -0.15806 -0.082225 
-0.202158 -0.188979 0.012742 0.419203 -0.334191 -0.026577 0.135145 -0.350974 0.077671 
0.203678 -0.344845 -0.031637 0.245435 -0.249448 -0.142952 0.112558 -0.305929 -0.014054 
-0.664986 -0.121333 0.033889 0.173422 -0.237453 -0.209496 0.113895 -0.283747 -0.15427 
-0.524641 -0.161118 0.081584 0.042249 -0.411145 0.053212 -0.591025 -0.162445 0.320509 
0.007969 -0.221739 -0.274076 -0.117571 -0.259839 -0.018233 0.164732 -0.337424 -0.202604 
-0.537133 -0.136669 0.006636 0.004802 -0.331641 -0.056399 -0.144439 -0.219967 -0.137132 
-0.060056 -0.28543 -0.146849 0.376704 -0.420486 0.075124 0.009114 -0.285148 -0.19703 
0.047237 -0.379381 -0.167626 -0.318292 0.025439 -0.542343 0.401659 -0.481469 0.117183 
-0.23672 -0.07306 -0.553304 -0.588718 -0.209271 0.190577 0.431414 -0.451242 0.004406 
0.489163 -0.505641 0.087104 0.032637 -0.417223 -0.060264 -0.627514 -0.20395 0.023367 
-0.628983 -0.192631 0.208772 -0.635506 -0.234401 0.103464 0.202047 -0.356197 -0.134863 
0.094921 -0.449106 0.083378 0.134278 -0.439464 -0.146544 0.077689 -0.487715 0.026196 
0.022033 -0.514554 0.210256 0.031855 -0.484162 0.087104 0.116228 -0.469981 -0.067881 
0.065068 -0.471775 0.088807 0.039939 -0.488471 -0.080372 -0.003566 -0.536756 0.189534 
0.033656 -0.512478 -0.011946 0.019321 -0.50555 0.038958 -0.046121 -0.591156 0.159039 
-0.024182 -0.651151 0.093108 -0.006133 -0.582558 0.158958 0.00062 -0.518471 0.009003 
-0.044031 -0.628299 0.116206 -0.017012 -0.641157 0.114037 -0.053245 -0.659491 0.095994 

POLYGONS 501 1500
OFFSETS vtktypeint64
0 3 6 9 12 15 18 21 24 
27 30 33 36 39 42 45 48 51 
54 57 60 63 66 69 72 75 78 
81 84 87 90 93 96 99 102 105 
108 111 114 117 120 123 126 129 132 
135 138 141 144 147 150 153 156 159 
162 165 168 171 174 177 180 183 186 
189 192 195 198 201 204 207 210 213 
216 219 222 225 228 231 234 237 240 
243 246 249 252 255 258 261 264 267 
270 273 276 279 282 285 288 291 294 
297 300 303 306 309 312 315 318 321 
324 327 330 333 336 339 342 345 348 
351 354 357 360 363 366 369 372 375 
378 381 384 387 390 393 396 399 402 
405 408 411 414 417 420 423 426 429 
432 435 438 441 444 447 450 453 456 
459 462 465 468 471 474 477 480 483 
486 489 492 495 498 501 504 507 510 
513 516 519 522 525 528 531 534 537 
540 543 546 549 552 555 558 561 564 
567 570 573 576 579 582 585 588 591 
594 597 600 603 606 609 612 615 618 
621 624 627 630 633 636 639 642 645 
648 651 654 657 660 663 666 669 672 
675 678 681 684 687 690 693 696 699 
702 705 708 711 714 717 720 723 726 
729 732 735 738 741 744 747 750 753 
756 759 762 765 768 771 774 777 780 
783 786 789 792 795 798 801 804 807 
810 813 816 819 822 825 828 831 834 
837 840 843 846 849 852 855 858 861 
864 867 870 873 876 879 882 885 888 
891 894 897 900 903 906 909 912 915 
918 921 924 927 930 933 936 939 942 
945 948 951 954 957 960 963 966 969 
972 975 978 981 984 987 990 993 996 
999 1002 1005 1008 1011 1014 1017 1020 1023 
1026 1029 1032 1035 1038 1041 1044 1047 1050 
1053 1056 1059 1062 1065 1068 1071 1074 1077 
1080 1083 1086 1089 1092 1095 1098 1101 1104 
1107 1110 1113 1116 1119 1122 1125 1128 1131 
1134 1137 1140 1143 1146 1149 1152 1155 1158 
1161 1164 1167 1170 1173 1176 1179 1182 1185 
1188 1191 1194 1197 1200 1203 1206 1209 1212 
1215 1218 1221 1224 1227 1230 1233 1236 1239 
1242 1245 1248 1251 1254 1257 1260 1263 1266 
1269 1272 1275 1278 1281 1284 1287 1290 1293 
1296 1299 1302 1305 1308 1311 1314 1317 1320 
1323 1326 1329 1332 1335 1338 1341 1344 1347 
1350 1353 1356 1359 1362 1365 1368 1371 1374 
1377 1380 1383 1386 1389 1392 1395 1398 1401 
1404 1407 1410 1413 1416 1419 1422 1425 1428 
1431 1434 1437 1440 1443 1446 1449 1452 1455 
1458 1461 1464 1467 1470 1473 1476 1479 1482 
1485 1488 1491 1494 1497 1500 
CONNECTIVITY vtktypeint64
198 228 227 128 124 142 4 0 3 
190 220 182 182 220 224 190 182 191 
228 182 224 228 224 227 171 190 191 
191 182 228 171 191 228 198 171 228 
242 240 237 47 38 53 207 196 230 
225 186 223 138 145 151 151 129 140 
130 140 129 138 130 145 154 225 223 
160 186 225 154 160 225 160 153 186 
160 151 153 151 145 153 145 223 153 
154 129 160 129 151 160 143 154 223 
143 129 154 130 129 143 145 143 223 
145 130 143 203 211 234 199 170 194 
142 133 170 76 104 128 170 156 194 
170 144 156 116 101 144 116 60 101 
104 60 116 104 76 60 137 119 136 
144 101 121 141 159 180 121 168 156 
121 126 168 168 126 163 105 118 106 
163 123 162 8 2 14 139 134 149 
139 149 146 6 5 1 165 155 169 
169 155 167 169 167 187 187 167 202 
165 169 171 165 171 198 165 198 202 
202 198 227 40 25 44 44 42 40 
40 42 77 25 40 56 56 40 77 
181 158 197 181 197 193 212 197 231 
193 212 226 212 193 197 106 118 123 
126 106 123 126 123 163 105 106 108 
108 106 126 60 108 101 108 121 101 
121 108 126 102 81 94 189 178 213 
152 178 189 131 178 152 102 131 120 
102 94 131 152 120 131 120 152 136 
119 120 136 127 137 136 138 137 127 
115 130 138 115 119 130 115 120 119 
38 37 53 38 33 37 47 97 98 
95 47 98 47 53 97 58 47 95 
58 24 47 24 38 47 24 33 38 
137 138 151 140 137 151 140 119 137 
130 119 140 132 117 179 132 113 117 
177 132 179 122 132 177 113 132 122 
172 177 208 52 113 111 172 208 213 
178 172 213 52 111 94 81 52 94 
54 52 81 103 81 102 54 81 103 
157 152 189 157 136 152 103 102 120 
127 136 157 115 138 127 135 115 127 
103 120 115 114 103 115 37 45 74 
37 74 53 88 96 86 97 74 86 
53 74 97 37 33 45 97 96 98 
96 83 98 86 96 97 62 58 95 
172 122 177 178 122 172 131 122 178 
94 111 122 111 113 122 131 94 122 
29 36 32 36 29 35 207 230 232 
231 207 232 246 248 243 204 203 234 
234 211 237 237 211 242 211 240 242 
240 211 238 238 211 244 236 240 247 
240 238 247 238 244 245 244 236 245 
236 247 245 243 236 250 243 250 246 
250 236 244 244 248 249 248 246 251 
134 128 142 134 142 150 150 142 170 
234 240 236 4 3 10 134 79 128 
2 8 7 190 187 220 202 227 220 
187 202 220 220 227 224 169 190 171 
190 169 187 158 207 231 166 207 158 
78 70 77 73 70 78 46 70 73 
46 27 70 31 46 68 31 27 46 
25 27 31 73 78 100 68 46 73 
147 148 155 89 100 112 89 73 100 
68 89 91 68 73 89 179 205 208 
179 161 205 148 161 179 148 147 161 
117 112 148 112 110 148 85 110 112 
100 85 112 91 110 85 110 89 87 
110 91 89 23 20 22 215 233 235 
205 233 215 208 205 215 82 87 89 
82 39 87 39 59 87 22 59 39 
1 20 23 15 1 23 179 117 148 
82 89 112 6 13 5 204 236 239 
149 134 150 139 79 134 17 3 18 
3 16 18 17 10 3 3 0 16 
14 2 12 0 4 16 16 10 17 
4 10 16 7 9 12 2 7 12 
241 239 243 239 236 243 235 239 241 
204 234 236 203 206 211 203 204 206 
150 206 185 206 170 199 150 170 206 
79 76 128 18 30 19 18 16 30 
243 248 241 244 211 248 211 229 248 
199 194 217 194 214 217 60 65 69 
149 150 185 17 18 14 196 176 216 
240 234 237 212 231 226 133 116 144 
249 248 251 249 251 250 250 251 246 
128 104 124 104 116 124 133 124 116 
142 124 133 170 133 144 238 245 247 
250 244 249 96 75 83 35 62 75 
50 35 75 75 43 50 43 36 50 
196 216 230 173 196 207 173 176 196 
166 173 207 173 166 176 113 112 117 
113 82 112 177 179 208 41 39 82 
26 39 41 23 22 39 26 23 39 
26 15 23 52 67 82 34 41 67 
52 51 67 29 58 35 35 58 62 
52 82 113 11 1 15 235 241 222 
222 215 235 208 215 222 221 209 217 
206 217 209 209 208 222 51 63 67 
21 34 49 26 34 21 15 26 21 
11 15 9 219 221 217 214 218 219 
65 54 57 65 51 54 214 200 218 
201 200 214 80 72 84 72 57 84 
65 57 72 201 188 200 80 92 72 
184 200 195 195 180 184 180 159 184 
141 135 159 125 135 141 109 135 125 
109 114 135 109 107 114 99 107 109 
109 92 99 93 92 109 195 200 188 
176 180 195 92 90 99 92 61 90 
216 188 210 195 188 216 176 195 216 
208 209 221 99 80 107 34 26 41 
213 208 221 54 51 52 219 189 221 
218 189 219 55 68 91 85 55 91 
28 21 49 30 28 19 19 28 59 
59 28 49 51 76 63 59 49 66 
79 63 76 59 66 87 66 67 63 
87 66 63 185 206 204 217 206 199 
206 222 229 7 8 9 9 8 14 
11 9 13 144 121 156 13 9 14 
9 16 12 14 12 16 13 14 20 
14 16 17 20 14 19 19 14 18 
22 19 59 87 63 79 87 79 110 
149 185 205 205 185 233 185 204 233 
233 204 239 235 233 239 6 1 11 
6 11 13 5 20 1 20 5 13 
22 20 19 110 79 139 148 110 139 
148 139 146 148 146 155 155 146 167 
146 161 167 161 146 205 205 146 149 
85 71 55 57 54 103 57 103 84 
157 189 218 157 218 200 84 103 107 
184 157 200 159 157 184 135 157 159 
114 115 135 103 114 107 84 107 80 
64 99 90 86 64 90 64 80 99 
74 64 86 90 61 48 45 64 74 
64 92 80 64 61 92 45 61 64 
88 86 90 90 48 88 61 45 48 
45 43 48 45 32 43 33 32 45 
83 62 98 62 95 98 43 75 96 
43 32 36 24 58 29 24 32 33 
32 24 29 189 213 221 135 127 157 
88 43 96 88 48 43 30 21 28 
30 9 21 16 9 30 248 229 241 
211 206 229 51 65 76 217 214 219 
69 65 72 183 192 201 183 141 164 
72 92 93 201 192 188 164 175 192 
183 164 192 141 174 164 174 141 180 
118 93 109 192 175 188 164 174 175 
188 175 210 166 174 176 230 210 232 
174 181 175 174 166 181 62 83 75 
9 15 21 229 222 241 174 180 176 
216 210 230 60 76 65 194 201 214 
194 168 201 156 168 194 60 69 108 
69 105 108 69 72 105 168 163 183 
163 162 183 72 93 105 100 71 85 
36 35 50 162 141 183 168 183 201 
147 155 165 161 147 202 147 165 202 
167 161 202 44 31 68 42 44 68 
42 68 55 42 55 71 100 78 71 
25 31 44 42 71 78 42 78 77 
27 25 56 70 27 56 70 56 77 
181 166 158 175 193 226 197 158 231 
231 232 226 175 181 193 210 175 226 
226 232 210 93 118 105 118 109 125 
118 125 123 125 141 162 123 125 162 
67 41 82 206 209 222 67 66 34 
49 34 66 186 153 223 
POINT_DATA 252
SCALARS k float
LOOKUP_TABLE default
0.731362 -0.437351 1.4051 0.696869 4.60131 1.2094 4.5884 3.98265 0.827394 
-1.6119 0.235971 -0.880529 -1.77471 -1.83523 -2.54719 0.0431315 -1.90982 -1.7759 
-1.09267 0.878869 -0.704047 0.747725 0.536376 0.262405 1.05443 1.14569 1.40176 
1.65381 0.538655 0.600779 0.092511 0.339609 -0.209291 0.072876 -0.0825841 -0.525171 
1.45849 0.0322101 1.73236 -0.392877 0.963887 0.42381 0.40983 -0.304563 0.998121 
-1.4878 0.593416 1.00484 -0.749415 0.244242 2.93765 0.224343 0.0907663 0.479406 
0.250097 -0.256137 1.7107 0.0588406 0.0496911 -1.34118 0.0923966 0.339784 -0.620355 
-0.107767 -1.50035 0.186226 -2.92057 -2.16176 -0.696583 -0.0171789 0.352903 -0.318338 
-0.498791 -0.704702 0.0543364 -0.741578 0.382329 0.911366 -0.509791 0.167981 -0.560643 
0.274502 -1.06712 2.10679 -0.604852 -0.429194 0.18501 -0.603045 -1.45501 -1.73364 
0.00647289 -0.178234 -0.0519348 -0.57159 0.252863 0.0694894 -0.721576 0.1006 1.61265 
-0.707401 -0.335372 -0.064281 0.174671 0.145462 -0.134861 -0.08758 0.542733 -1.0377 
-0.230779 -1.2371 -2.01225 -0.0109644 -1.45482 0.248341 0.0812634 -0.976515 -0.109615 
0.157361 0.637326 -0.446792 -1.26459 -0.323706 0.0518859 0.336635 1.79786 -0.0135801 
0.581253 -1.05577 -0.327505 0.312285 0.717847 0.310017 0.160312 -0.253883 0.23384 
0.249698 -1.32823 -0.96608 0.276006 0.303551 -0.258334 -1.41415 -0.266878 1.14906 
0.0283104 -0.306495 -2.18793 0.117816 -0.753607 -0.138856 0.232908 -1.51505 0.110181 
-0.53569 0.767845 -0.360339 0.0156786 0.183535 0.0299657 -1.18707 -0.501609 -1.26729 
0.624053 0.556204 -0.129523 -0.516255 1.47519 -1.12435 -0.299054 -0.610945 0.218161 
0.706302 -0.05533 0.888115 -0.5115 -0.55909 -0.345636 0.162683 0.280168 0.34799 
-0.366659 0.436832 1.52434 -1.19906 -0.44761 -0.72311 4.60701 -0.834543 -0.218202 
0.209603 0.812463 1.04237 -0.306057 -0.66026 0.230179 -0.345582 0.328215 -0.768902 
0.809358 0.178699 -0.384301 -0.328106 -0.918348 1.45752 -0.299699 -0.528143 -4.02284 
0.648425 -0.969429 -1.52207 -0.18104 -1.07299 4.36132 0.250583 0.0594399 0.453564 
-0.470362 0.340795 0.047496 0.147576 0.841936 0.185949 0.996206 0.930334 1.46547 
0.966197 -0.533635 0.563159 1.40028 -0.0440942 1.12702 0.12444 1.05281 0.136944 
-1.00131 0.534922 -1.31554 2.71211 -0.403186 0.139722 -4.10402 0.271495 3.17646 
-0.541643 -4.22657 4.04958 0.53603 1.53345 -0.521973 1.29245 1.18339 2.9589 

FIELD FieldData 7
h 1 252 float
0.271408 1.74061 1.00885 4.45667 1.31148 0.461026 0.568407 0.827105 0.358901 
1.53727 1.61455 0.351002 -4.55966 0.457099 0.771617 3.14734 -0.141867 -0.0306331 
0.546468 -0.102221 1.69499 1.00055 1.92815 1.7812 6.18362 0.599377 2.29906 
1.2034 -0.20832 10.8641 1.15035 2.08034 -1.37899 -0.329473 -1.05764 0.825134 
-3.44526 -0.287657 -0.14077 1.33634 1.45986 2.08612 -0.710493 1.4618 -0.27937 
-0.661657 -0.377881 5.62447 0.947304 4.23984 1.20149 2.90735 2.06136 0.732904 
2.51123 -0.00865436 3.53208 2.46609 1.18723 -1.02318 3.15967 1.88757 4.47873 
2.91807 0.0451891 2.70562 -0.603623 1.05987 0.4144 2.3805 0.617995 -0.580592 
2.20709 0.530292 -2.21665 1.75489 2.69197 4.89308 -0.684602 1.29208 -0.326837 
2.27052 1.60955 0.307498 1.53914 -0.941662 1.89618 2.54543 -1.05943 0.528761 
1.88042 -0.748061 0.744768 1.66792 2.85759 1.79937 2.93687 1.78041 7.64915 
-0.91998 0.276514 2.45335 2.70655 1.48471 2.77053 2.22962 3.91631 0.233097 
2.86222 1.29766 1.86976 2.50504 1.53519 1.97587 1.12278 0.851289 2.5329 
1.81733 2.10049 0.636497 2.63823 1.59525 2.27371 4.5934 3.29073 1.12223 
3.00953 0.363281 2.33407 -0.817922 0.631521 3.25947 2.14067 2.23588 2.00923 
2.31081 2.09985 -0.971372 1.74169 3.22558 0.128396 -0.208064 2.26624 3.72504 
1.96365 1.02874 2.40284 0.825424 2.34853 2.96922 3.14131 -6.0374 2.83405 
-15.2286 -0.40236 -2.0615 1.15253 0.875931 12.6326 0.703206 -4.24014 1.07793 
3.7399 2.2796 0.4109 1.37095 -0.706897 -1.83102 2.1664 -0.175315 2.03608 
0.944313 2.24673 0.930324 -0.185872 0.259273 0.335748 2.3942 2.67468 2.07058 
-2.04072 2.04334 1.63025 2.03957 1.20482 2.78854 -1.37486 -1.62458 0.967296 
1.68851 -2.75247 4.41015 1.17245 -0.739438 2.59841 0.776496 1.01607 0.902547 
0.437302 2.98327 0.38884 1.81963 1.0652 0.559893 2.05404 2.34262 -0.790981 
11.0619 1.85259 1.18118 2.04473 -3.52246 1.6437 2.31801 1.72835 2.30492 
0.790917 2.73126 0.886169 1.12511 -0.762439 1.86248 1.24003 2.70702 4.75236 
0.202211 -0.303263 1.4231 1.18046 -0.446631 1.99523 6.28533 1.31282 2.87848 
1.25555 2.93038 1.95571 -0.332724 0.346148 3.86207 3.08562 2.72812 0.0332942 
1.5551 -1.28481 0.214905 1.13983 0.153852 -0.713716 -0.75043 0.312832 0.167514 

kmin 1 252 float
1.86576 3.38075 4.48694 12.8955 2.52032 1.35488 1.12087 2.12663 0.965171 
4.17981 2.26229 2.01813 0.477123 2.34143 3.78079 7.33901 2.33951 0.964402 
3.15307 1.26623 5.36259 2.44569 4.21777 2.40892 8.11566 2.08284 5.40276 
3.4121 1.62231 18.4128 3.90011 6.36819 0.381396 2.13616 1.84618 5.39021 
-1.78411 4.33158 0.0976895 1.82466 4.35402 3.71688 1.98579 4.01075 1.38931 
3.08429 0.75405 8.26685 4.88291 7.10423 2.82253 4.55536 4.31242 4.03276 
4.4329 1.3667 7.07159 3.9641 8.68056 0.45344 4.09606 3.71658 4.69991 
4.84983 3.06624 4.22041 0.14093 2.76601 1.15992 3.01119 3.30457 0.634562 
4.14719 1.98798 -1.38926 4.86801 4.25638 11.4587 0.610227 2.14079 0.444391 
4.26539 2.97227 5.59842 2.93438 0.0245514 8.26278 5.155 3.27351 1.64596 
4.79633 0.412022 1.58191 1.87784 4.70332 9.75535 6.09665 8.49703 12.6414 
0.480089 1.14431 2.7999 3.9308 2.29773 3.5787 3.16656 6.128 1.77021 
3.71442 2.46129 4.1968 4.61137 2.26012 3.65921 2.0868 1.7046 2.72682 
2.36923 2.89596 1.7857 3.36998 1.95045 3.07402 7.30994 3.98608 2.41673 
5.03383 2.32033 3.19596 0.687035 1.28801 4.07844 2.83128 3.057 3.03642 
5.39214 2.94279 1.67202 2.73808 6.02495 0.495652 1.39602 3.42662 6.16829 
2.62008 3.37383 4.29814 1.96299 3.76329 5.05978 4.34605 3.35709 4.11414 
1.45314 0.31694 -0.649504 1.46049 2.07428 18.1626 2.95336 -3.48626 1.52708 
6.00894 3.92279 2.76904 2.9167 0.241651 -1.20324 4.58066 0.601101 2.35163 
3.24152 3.10782 3.58801 1.1313 1.95307 3.20253 3.12776 3.18874 2.43122 
-0.425041 5.41132 4.83688 4.57398 2.33144 4.90316 1.61214 2.37144 2.60311 
2.00624 -1.0393 10.5976 3.17041 6.12679 5.76222 1.67516 4.55865 2.29858 
2.166 4.55729 0.80751 4.24489 1.46813 0.839257 4.29433 3.37393 0.485887 
11.8609 2.6656 1.78384 5.38821 2.09115 4.68342 3.27846 4.28588 3.30682 
2.46099 4.32316 1.12231 1.20165 -0.334571 2.74486 2.39627 6.15894 10.9111 
0.809267 3.4403 4.10294 3.34891 1.50662 5.94199 11.4422 3.38659 4.39515 
3.22862 4.64297 4.81656 1.17255 3.96102 6.97796 6.79387 6.4147 0.732732 
4.35366 3.20263 1.11451 2.91106 1.73634 3.21004 0.234334 1.93214 1.90812 

kmax 1 252 float
-1.32294 0.100471 -2.46924 -3.98218 0.102645 -0.432831 0.0159486 -0.472422 -0.247368 
-1.10526 0.966814 -1.31612 -9.59645 -1.42723 -2.23755 -1.04433 -2.62325 -1.02567 
-2.06013 -1.47067 -1.97261 -0.444593 -0.361474 1.15348 4.25158 -0.88409 -0.804652 
-1.00529 -2.03896 3.31536 -1.5994 -2.20751 -3.13937 -2.79511 -3.96147 -3.73994 
-5.10641 -4.90689 -0.37923 0.848028 -1.4343 0.45536 -3.40677 -1.08714 -1.94805 
-4.4076 -1.50981 2.98208 -2.98831 1.37545 -0.419555 1.25934 -0.189707 -2.56695 
0.589557 -1.38401 -0.00743112 0.968071 -6.3061 -2.4998 2.22328 0.058571 4.25755 
0.986307 -2.97586 1.19084 -1.34818 -0.646277 -0.331116 1.7498 -2.06858 -1.79575 
0.266991 -0.927396 -3.04404 -1.35822 1.12757 -1.67258 -1.97943 0.443368 -1.09807 
0.275636 0.246832 -4.98342 0.143904 -1.90787 -4.47042 -0.0641495 -5.39237 -0.588444 
-1.03549 -1.90814 -0.0923752 1.458 1.01186 -6.15661 -0.222916 -4.9362 2.65694 
-2.32005 -0.591285 2.10681 1.48231 0.6717 1.96237 1.29269 1.70462 -1.30401 
2.01003 0.134021 -0.457268 0.39871 0.810265 0.29254 0.15877 -0.00202165 2.33897 
1.26544 1.30503 -0.51271 1.90649 1.24006 1.47339 1.87685 2.59539 -0.172261 
0.98522 -1.59377 1.47217 -2.32288 -0.0249681 2.44051 1.45006 1.41475 0.982035 
-0.770523 1.25691 -3.61476 0.74529 0.426212 -0.23886 -1.81214 1.10587 1.28179 
1.30722 -1.31634 0.507527 -0.312141 0.93376 0.878664 1.93657 -15.4319 1.55397 
-31.9103 -1.12166 -3.4735 0.84456 -0.32242 7.10265 -1.54695 -4.99401 0.62878 
1.47086 0.636412 -1.94724 -0.174807 -1.65545 -2.45881 -0.247862 -0.951731 1.72053 
-1.35289 1.38564 -1.72736 -1.50304 -1.43453 -2.53103 1.66065 2.16062 1.70993 
-3.65639 -1.32463 -1.57639 -0.494844 0.0781975 0.673921 -4.36185 -5.6206 -0.668517 
1.37077 -4.46564 -1.77729 -0.825515 -7.60567 -0.5654 -0.122167 -2.52651 -0.493489 
-1.2914 1.40925 -0.0298312 -0.605619 0.662271 0.280529 -0.186256 1.31131 -2.06785 
10.2629 1.03957 0.578512 -1.29876 -9.13607 -1.39602 1.35755 -0.829173 1.30301 
-0.879156 1.13936 0.650026 1.04857 -1.19031 0.98009 0.0837886 -0.744898 -1.40635 
-0.404846 -4.04683 -1.25673 -0.987991 -2.39988 -1.95153 1.1285 -0.76095 1.36181 
-0.717522 1.21779 -0.905146 -1.838 -3.26872 0.746173 -0.622623 -0.958462 -0.666143 
-1.24347 -5.77225 -0.684703 -0.631391 -1.42863 -4.63747 -1.73519 -1.30648 -1.57309 

hks 16 252 double
0.97884845679 0.97449513237 0.96999151782 0.965388135 0.96073584205 0.9560853298 0.95148663402 0.94698866739 0.94263877489 
0.93848231592 0.93456227638 0.93091891399 0.92758943998 0.92460774039 0.92200413983 0.91980521049 0.57858550002 0.58086794697 
0.583335858 0.58600833067 0.58890211778 0.59203141869 0.59540772596 0.59903972904 0.60293327491 0.60709138466 0.61151432313 
0.61619971815 0.62114272447 0.62633622676 0.63177107539 0.63743634813 0.69716699674 0.70190566843 0.70682521862 0.71190193856 
0.71711317648 0.72243779853 0.72785657932 0.733352512 0.73891103177 0.74452015017 0.75017050126 0.75585530425 0.76157024988 
0.76731332047 0.77308455527 0.77888577396 0.92351983603 0.92139167381 0.91908067958 0.91663191467 0.91409106009 0.91150393654 
0.90891603726 0.90637207849 0.90391557122 0.90158841805 0.89943053846 0.89747952571 0.89577033848 0.89433503014 0.89320251815 
0.89239839623 0.99802239874 0.99283100638 0.98750623354 0.9821003393 0.97666577651 0.9712546876 0.96591841725 0.96070704537 
0.95566894387 0.95085036015 0.94629503045 0.94204382621 0.93813443663 0.9346010906 0.93147432128 0.92878077598 0.65401937739 
0.65369198742 0.6536974842 0.65405754845 0.65479031968 0.65591022373 0.65742786871 0.65935000981 0.6616795813 0.66441579325 
0.6675542889 0.6710873576 0.67500419715 0.67929121866 0.68393238585 0.68890958085 0.66163125158 0.66110482349 0.66092984695 
0.6611278613 0.66171664358 0.66271005546 0.66411796255 0.66594622515 0.66819675832 0.67086765776 0.67395338649 0.67744501646 
0.68133051819 0.6855950907 0.69022152335 0.69519058082 0.68555002342 0.69014996649 0.69498714999 0.70003401164 0.70526374583 
0.71065084047 0.71617154285 0.72180424281 0.72752976566 0.73333157072 0.73919585571 0.7451115707 0.7510703484 0.75706636057 
0.76309611209 0.76915818568 0.67214125139 0.67740509782 0.68285658715 0.68847130163 0.69422566973 0.70009742924 0.70606602659 
0.71211294227 0.7182219358 0.72437920682 0.73057347262 0.73679596551 0.74304035619 0.74930261185 0.75558079935 0.7618748451 
0.5533126082 0.5622155559 0.57107798279 0.57989220385 0.588651385 0.59734959434 0.60598184235 0.6145441096 0.62303336107 
0.63144754608 0.63978558345 0.64804733172 0.65623354486 0.66434581416 0.67238649769 0.68035863884 0.95939119483 0.95597890955 
0.95239364146 0.9486841741 0.94489978943 0.94108976607 0.93730289234 0.93358699813 0.92998850959 0.9265520301 0.92331995103 
0.92033209533 0.91762539727 0.91523362144 0.91318712369 0.9115126567 0.56697805469 0.5721838464 0.57749764181 0.58292805278 
0.58848234241 0.5941663099 0.59998421326 0.60593873025 0.61203095713 0.61826044336 0.6246252595 0.63112209503 0.63774638157 
0.64449243726 0.65135362689 0.65832253316 0.67762538521 0.68414119052 0.69061350009 0.69703647625 0.70340576025 0.70971856603 
0.71597373647 0.72217175987 0.72831474541 0.73440635848 0.74045171741 0.74645725541 0.75243055187 0.758380139 0.76431528983 
0.77024579458 0.58596633783 0.59202063461 0.59813767206 0.6043240395 0.61058547452 0.61692675833 0.62335163989 0.62986278928 
0.63646178025 0.6431491005 0.64992418805 0.65678549088 0.6637305468 0.67075608013 0.67785811124 0.68503207532 0.61060625554 
0.61927414558 0.62779957732 0.63618130965 0.64441972368 0.65251675654 0.66047581673 0.66830168246 0.67600038462 0.68357907628 
0.69104589073 0.6984097903 0.70568040825 0.71286788648 0.7199827116 0.72703555219 0.47090584552 0.47659367207 0.48238379445 
0.48827478271 0.4942649007 0.50035207028 0.50653384574 0.51280739982 0.51916952204 0.52561662942 0.53214478917 0.53874975246 
0.54542699778 0.55217178227 0.55897919899 0.56584423793 0.77374891541 0.77757165634 0.7811465716 0.78450082427 0.78766309149 
0.79066317685 0.79353162342 0.79629933332 0.7989971986 0.8016557481 0.80430481398 0.80697322152 0.80968850501 0.81247665237 
0.81536188041 0.8183664427 0.80769634089 0.81039186777 0.81284212521 0.81507814601 0.81713236793 0.8190382222 0.82082972469 
0.82254107508 0.82420626913 0.82585872818 0.82753095 0.82925418425 0.83105813577 0.83297069828 0.83501772082 0.8372228089 
0.66794373595 0.67410765258 0.68009235411 0.68591127239 0.6915792886 0.69711247548 0.70252783528 0.70784303829 0.7130761661 
0.71824546323 0.72336910032 0.72846495159 0.73355038876 0.73864209325 0.74375588827 0.74890659167 0.44786171484 0.45480950679 
0.46191152957 0.46915198689 0.47651521428 0.48398578829 0.49154863398 0.49918913033 0.50689321307 0.5146474735 0.52243925174 
0.53025672238 0.53808897026 0.54592605439 0.55375905779 0.56158012171 0.52358061817 0.52941001347 0.53531849491 0.54131135641 
0.54739316606 0.55356764842 0.55983759195 0.56620478361 0.5726699715 0.57923285573 0.58589210661 0.59264540842 0.59948952635 
0.60642039363 0.6134332153 0.62052258483 0.41190167649 0.41531601097 0.41898999432 0.4229134442 0.42707503507 0.43146248571 
0.43606275689 0.44086225461 0.44584703428 0.45100300114 0.45631610245 0.46177250746 0.46735877132 0.47306198006 0.47886987421 
0.48477094931 0.44180611111 0.44160494842 0.44181993971 0.4424476823 0.4434818767 0.44491352185 0.44673115378 0.44892112113 
0.45146788994 0.45435436964 0.4575622514 0.46107235006 0.46486494101 0.46892008354 0.47321792329 0.47773896716 0.43553730746 
0.43946437129 0.44345011091 0.44750117462 0.45162388346 0.45582414275 0.46010736554 0.46447840858 0.46894152124 0.47350030709 
0.47815769808 0.48291594057 0.48777659265 0.49274053181 0.49780797219 0.50297849047 0.59113397247 0.60014287 0.60939477268 
0.61888859361 0.6286223836 0.63859337868 0.64879807629 0.65923233853 0.66989151983 0.68077061529 0.69186442528 0.70316773099 
0.71467547537 0.72638294409 0.73828594064 0.75038095079 0.98572922517 0.99736840488 1.0087215626 1.019761714 1.0304627908 
1.0407997455 1.0507486463 1.0602867584 1.069392613 1.0780460618 1.0862283164 1.0939219725 1.1011110182 1.1077808271 
1.1139181369 1.119511014 0.4245558762 0.42299676393 0.42165296913 0.42053123972 0.41963705237 0.41897466373 0.41854718065 
0.41835664543 0.41840413145 0.41868984486 0.4192132276 0.41997305785 0.42096754389 0.42219440869 0.4236509625 0.42533416233 