# vtk DataFile Version 5.1
vtk output
ASCII
DATASET POLYDATA
POINTS 252 float
0.467588 -0.4581 -0.561262 0.416234 0.460057 -0.50383 0.410885 0.54558 -0.509934 
0.429489 -0.445815 -0.550375 0.388695 -0.469952 -0.463369 0.462715 0.460875 -0.451317 
0.460777 -0.394783 -0.440307 0.458781 -0.454693 -0.402822 0.434027 -0.501496 -0.494204 
0.455549 0.537969 -0.499158 0.42651 0.422959 -0.409135 0.297161 -0.446925 -0.357396 
0.442676 0.502676 -0.389041 0.421342 0.43617 -0.339455 0.241353 -0.371022 -0.340737 
0.406783 -0.395057 -0.412999 0.400053 -0.473792 -0.410089 0.388989 0.474143 -0.401781 
0.389179 0.509898 -0.385775 0.414105 -0.419441 -0.341823 0.359354 0.483432 -0.301854 
0.227446 -0.309694 -0.303639 0.28999 0.486145 -0.322418 0.251325 0.448477 -0.328895 
0.395988 -0.360941 -0.351888 0.133856 -0.369268 -0.237746 0.270206 0.37363 -0.341256 
0.328112 -0.363697 -0.210695 0.243909 0.464537 -0.245563 0.282216 -0.450644 -0.267804 
0.33474 0.402419 -0.23184 0.310132 -0.316243 -0.250005 0.340834 0.352776 -0.246713 
0.152673 0.31188 -0.246485 0.241346 0.329912 -0.29416 0.124983 0.386548 -0.223867 
0.231143 -0.342035 -0.131345 0.210909 -0.38788 -0.163458 0.215599 -0.278565 -0.208743 
0.229029 0.344255 -0.131216 0.205447 0.295699 -0.218122 0.171062 -0.413378 -0.228713 
0.147329 -0.283843 -0.225889 0.258686 -0.27991 -0.132514 0.244229 0.404037 -0.16593 
0.225296 -0.189737 -0.108486 0.243571 0.310175 -0.177694 0.20709 0.194259 -0.122505 
0.114808 0.212057 -0.111797 0.531617 -0.024987 0.068846 0.247198 0.226399 -0.132999 
0.127445 -0.375104 -0.155744 0.113664 0.254035 -0.168337 0.512997 0.004728 0.057024 
0.12389 0.374293 -0.144596 0.460647 -0.034803 0.070221 0.076418 -0.275287 -0.109802 
0.228314 0.294096 -0.008272 0.120226 -0.205798 -0.097304 0.162192 -0.326449 0.023753 
0.566111 -0.010286 0.162001 0.080436 0.296039 -0.127054 0.522865 0.068242 0.171863 
0.268767 -0.242036 0.012172 0.267809 0.227244 0.005817 0.27384 0.282258 0.065431 
0.141411 0.308732 0.043808 0.238396 0.158631 0.029694 0.210594 -0.147979 0.03782 
0.397575 0.066701 0.149411 0.308741 0.217585 0.080506 0.439939 -0.10091 0.155803 
0.518971 -0.09144 0.191023 0.309346 -0.186759 0.095694 0.212806 0.138289 0.042503 
0.268327 -0.280939 0.038982 0.581045 -0.045749 0.244538 0.106607 -0.114556 0.015043 
0.594331 0.008144 0.254703 0.263398 -0.127631 0.0752 0.175227 -0.062686 0.013762 
0.164653 0.050154 0.007144 0.251364 -0.008041 0.097845 0.091666 0.255329 0.029349 
0.123114 -0.008392 0.016178 0.287492 0.12006 0.095455 0.035212 -0.107794 -0.022474 
0.288404 0.039064 0.124029 0.402927 -0.048705 0.12991 0.179064 0.151846 -0.005784 
0.382695 0.001827 0.117805 0.111313 0.083181 0.009005 0.146795 0.151697 0.082746 
0.454544 0.091172 0.165284 0.308615 -0.157676 0.171599 0.15078 0.118755 0.004738 
0.013124 0.015 -0.050217 0.114459 -0.2106 0.04035 0.099022 0.308017 -0.002448 
0.311376 -0.09685 0.162545 -0.122128 0.02155 -0.058644 -0.021029 0.117493 -0.030184 
0.337133 0.101504 0.208329 0.368623 0.096369 0.264939 0.089598 0.229452 -0.023173 
0.086029 -0.283373 0.014143 0.306259 0.240252 0.158764 0.145659 -0.238183 0.151279 
0.310388 0.16273 0.183882 0.122331 0.156422 0.081481 0.573802 0.047231 0.325788 
0.313619 -0.240608 0.129717 0.196013 -0.303684 0.188668 0.543233 -0.07057 0.351227 
0.247938 -0.312447 0.147579 0.098886 -0.319593 -0.006011 0.133388 -0.168873 0.095944 
-0.081572 -0.096039 -0.043413 -0.012577 0.167199 0.046901 -0.138294 0.115637 -0.017775 
-0.012221 -0.16919 0.029753 0.273417 0.167864 0.26062 0.161707 0.303475 0.142654 
0.419232 0.081253 0.34202 0.425253 -0.081242 0.351708 0.153385 0.239086 0.170824 
0.492513 0.08973 0.332145 0.140857 -0.272815 0.154746 -0.136346 -0.145971 -0.002768 
0.512124 0.004268 0.403095 0.342129 -0.103937 0.25924 0.218297 0.311953 0.15179 
0.047607 -0.204773 0.148996 -0.180925 -0.054046 -0.041132 -0.281208 -0.089758 -0.061837 
-0.687672 -0.188661 -0.271562 -0.276205 0.203734 -0.025668 -0.201097 -0.135739 0.019946 
-0.393425 -0.141072 -0.112245 -0.119085 -0.211687 0.09908 -0.30535 0.0825 -0.070052 
-0.24763 -0.217075 0.03018 0.33436 0.034203 0.31936 -0.450986 -0.145496 -0.131398 
0.403631 -0.00486 0.364104 -0.210383 0.131458 0.020716 -0.446428 -0.073992 -0.075011 
0.222241 0.237388 0.249742 -0.155268 0.170701 0.03937 -0.727032 0.160561 -0.209138 
0.243412 -0.239249 0.256757 -0.353662 -0.189099 -0.073047 0.282579 -0.189724 0.241755 
-0.35692 -0.043131 -0.018667 -0.702371 -0.118453 -0.268677 -0.024511 -0.190449 0.189605 
-0.24535 0.05063 -0.001981 -0.352329 0.192638 -0.056249 -0.45487 0.176424 -0.100459 
-0.728192 -0.208505 -0.264064 -0.023837 0.181443 0.155569 -0.77551 0.137009 -0.217026 
-0.101784 0.212193 0.154843 0.335399 -0.055949 0.310302 -0.453427 -0.196162 -0.117489 
0.032922 0.190087 0.14824 -0.466078 0.143906 -0.119009 0.132092 -0.219591 0.250179 
0.234456 0.093603 0.330685 -0.56248 0.162845 -0.113785 -0.377481 0.215369 0.008248 
-0.265289 -0.034918 0.00829 -0.514109 0.095706 -0.093932 -0.193189 -0.173557 0.077118 
-0.74738 -0.136567 -0.2116 -0.423289 -0.066093 -0.003213 -0.34626 -0.225151 0.005302 
-0.619213 -0.126791 -0.130631 0.273273 -0.007405 0.329875 -0.462157 -0.209065 -0.059759 
-0.265017 0.214742 0.108921 -0.701787 -0.218418 -0.167919 -0.676559 -0.164154 -0.154072 
-0.579847 -0.201308 -0.122824 -0.381033 0.055716 -0.0465 -0.331355 0.01488 0.026625 
0.197177 -0.12073 0.329829 0.094361 0.004151 0.326169 -0.486552 -0.106251 -0.019095 
-0.405541 0.190647 0.062142 -0.024127 0.133832 0.236652 0.011484 0.18346 0.241448 
-0.482936 0.203464 -0.045334 -0.727135 -0.118021 -0.162243 -0.147093 0.188278 0.188769 
-0.712005 0.131847 -0.108163 -0.63318 0.200837 -0.091083 0.133696 0.099564 0.327916 
-0.488309 0.079418 -0.017463 0.008901 -0.162412 0.271262 -0.487367 -0.160921 -0.00939 
-0.689482 -0.206258 -0.100287 0.092085 -0.0636 0.332315 0.052878 0.129008 0.295513 
-0.466445 -0.180728 -0.000502 -0.031523 0.04272 0.260625 -0.019116 -0.081407 0.262188 
-0.444005 -0.106764 0.030225 -0.572109 -0.199662 -0.027099 -0.759271 0.111866 -0.206126 
-0.354952 -0.20372 0.082033 -0.599356 -0.088636 -0.082043 -0.591118 -0.125495 -0.017164 
-0.786178 -0.151414 -0.072411 -0.349273 -0.020736 0.050301 -0.503467 0.144156 0.010334 
-0.693711 -0.130858 -0.07473 -0.726684 0.203612 -0.115471 -0.777331 -0.21029 -0.115968 
-0.129748 0.149249 0.255268 -0.621855 0.087924 -0.062629 -0.377951 0.049466 0.099395 
-0.149975 -0.198697 0.175377 -0.676379 -0.164269 -0.051699 -0.390458 -0.103714 0.114344 
-0.275352 -0.212641 0.140535 -0.601011 0.090413 -0.00891 -0.031048 -0.013099 0.255773 
-0.220944 -0.158321 0.245395 -0.748228 0.122329 -0.058841 -0.631291 0.146107 0.01223 
-0.128931 -0.14736 0.263339 -0.294945 0.191963 0.17404 -0.377325 0.139985 0.136999 
-0.589536 0.20182 -0.004636 -0.756985 0.204069 -0.063472 -0.174319 0.090573 0.277461 
-0.359473 -0.161078 0.142898 -0.365354 -0.000157 0.177173 -0.302541 0.121288 0.253373 
-0.190361 0.001728 0.273987 -0.321804 -0.123454 0.248518 -0.813565 0.134737 -0.047207 
-0.201141 -0.07933 0.282403 -0.284338 0.05437 0.271619 -0.784747 0.224043 -0.152374 
-0.79793 0.162742 -0.022847 -0.379391 -0.07149 0.203107 -0.323681 -0.001634 0.227966 
-0.361451 0.099778 0.230789 -0.297991 -0.05905 0.26989 0.45916 -0.103165 0.291377 

POLYGONS 501 1500
OFFSETS vtktypeint64
0 3 6 9 12 15 18 21 24 
27 30 33 36 39 42 45 48 51 
54 57 60 63 66 69 72 75 78 
81 84 87 90 93 96 99 102 105 
108 111 114 117 120 123 126 129 132 
135 138 141 144 147 150 153 156 159 
162 165 168 171 174 177 180 183 186 
189 192 195 198 201 204 207 210 213 
216 219 222 225 228 231 234 237 240 
243 246 249 252 255 258 261 264 267 
270 273 276 279 282 285 288 291 294 
297 300 303 306 309 312 315 318 321 
324 327 330 333 336 339 342 345 348 
351 354 357 360 363 366 369 372 375 
378 381 384 387 390 393 396 399 402 
405 408 411 414 417 420 423 426 429 
432 435 438 441 444 447 450 453 456 
459 462 465 468 471 474 477 480 483 
486 489 492 495 498 501 504 507 510 
513 516 519 522 525 528 531 534 537 
540 543 546 549 552 555 558 561 564 
567 570 573 576 579 582 585 588 591 
594 597 600 603 606 609 612 615 618 
621 624 627 630 633 636 639 642 645 
648 651 654 657 660 663 666 669 672 
675 678 681 684 687 690 693 696 699 
702 705 708 711 714 717 720 723 726 
729 732 735 738 741 744 747 750 753 
756 759 762 765 768 771 774 777 780 
783 786 789 792 795 798 801 804 807 
810 813 816 819 822 825 828 831 834 
837 840 843 846 849 852 855 858 861 
864 867 870 873 876 879 882 885 888 
891 894 897 900 903 906 909 912 915 
918 921 924 927 930 933 936 939 942 
945 948 951 954 957 960 963 966 969 
972 975 978 981 984 987 990 993 996 
999 1002 1005 1008 1011 1014 1017 1020 1023 
1026 1029 1032 1035 1038 1041 1044 1047 1050 
1053 1056 1059 1062 1065 1068 1071 1074 1077 
1080 1083 1086 1089 1092 1095 1098 1101 1104 
1107 1110 1113 1116 1119 1122 1125 1128 1131 
1134 1137 1140 1143 1146 1149 1152 1155 1158 
1161 1164 1167 1170 1173 1176 1179 1182 1185 
1188 1191 1194 1197 1200 1203 1206 1209 1212 
1215 1218 1221 1224 1227 1230 1233 1236 1239 
1242 1245 1248 1251 1254 1257 1260 1263 1266 
1269 1272 1275 1278 1281 1284 1287 1290 1293 
1296 1299 1302 1305 1308 1311 1314 1317 1320 
1323 1326 1329 1332 1335 1338 1341 1344 1347 
1350 1353 1356 1359 1362 1365 1368 1371 1374 
1377 1380 1383 1386 1389 1392 1395 1398 1401 
1404 1407 1410 1413 1416 1419 1422 1425 1428 
1431 1434 1437 1440 1443 1446 1449 1452 1455 
1458 1461 1464 1467 1470 1473 1476 1479 1482 
1485 1488 1491 1494 1497 1500 
CONNECTIVITY vtktypeint64
230 246 229 70 64 65 235 217 245 
180 189 233 232 180 233 232 233 249 
180 232 194 194 232 219 235 245 246 
245 242 246 234 235 246 234 246 230 
239 232 249 219 232 239 33 40 47 
40 50 47 52 33 48 50 40 46 
50 46 64 61 52 104 33 47 48 
64 46 39 104 52 48 61 104 83 
64 57 65 66 98 83 65 106 70 
106 65 131 122 66 83 122 83 125 
122 147 131 122 125 147 121 106 147 
106 131 147 26 34 33 208 179 200 
179 204 200 183 164 179 201 183 179 
181 183 201 181 182 183 135 182 181 
159 218 174 159 181 218 167 150 186 
150 152 186 107 167 132 120 132 155 
139 120 155 128 120 139 141 137 173 
137 139 173 128 139 137 151 134 141 
176 151 141 151 176 179 164 151 179 
164 138 151 143 183 182 143 164 183 
116 107 132 116 132 120 111 94 152 
116 97 107 112 150 167 114 152 150 
111 152 114 97 127 107 11 16 29 
7 24 19 7 6 24 14 4 11 
4 16 11 0 6 7 0 7 8 
15 3 4 6 0 15 0 3 15 
8 7 16 4 8 16 0 4 3 
0 8 4 10 1 5 2 9 1 
2 1 17 5 9 12 1 10 17 
13 5 12 17 26 23 18 17 23 
18 23 22 13 12 20 20 12 18 
20 18 22 13 20 30 20 22 28 
20 28 44 22 23 28 9 2 18 
9 18 12 18 2 17 77 68 116 
77 116 120 120 86 77 117 86 120 
77 80 68 80 79 68 225 241 237 
228 222 231 225 222 228 210 225 237 
210 237 204 200 188 212 208 212 223 
201 208 223 208 200 212 201 213 218 
201 223 213 132 167 199 155 132 199 
222 155 231 139 155 222 173 139 222 
173 222 225 141 173 225 176 141 225 
204 176 210 176 225 210 179 176 204 
201 179 208 181 201 218 118 148 162 
158 166 169 108 106 121 125 109 165 
109 101 118 118 101 148 108 85 106 
85 70 106 104 109 125 104 92 109 
83 104 125 85 64 70 67 64 85 
89 67 74 89 47 67 48 47 89 
48 89 104 50 64 67 47 50 67 
219 239 244 236 219 244 140 166 158 
101 119 148 92 74 95 187 168 197 
178 168 187 227 187 205 185 221 198 
185 156 171 88 71 99 130 124 163 
175 146 188 53 55 90 49 55 53 
49 53 60 79 80 82 99 79 82 
88 99 90 87 90 82 113 72 76 
76 78 113 78 110 113 100 117 133 
113 110 129 134 146 153 171 134 153 
171 153 214 156 133 171 163 124 144 
142 163 144 163 142 178 124 129 144 
113 129 124 153 146 175 153 175 214 
214 175 207 185 171 214 186 178 187 
186 187 202 186 163 178 214 207 224 
238 214 224 243 227 240 231 206 227 
206 202 227 187 227 202 238 224 247 
248 238 247 248 247 250 250 247 241 
250 240 248 243 240 250 231 227 243 
198 184 185 129 123 144 129 126 123 
144 123 142 184 156 185 100 133 156 
184 140 156 110 126 129 119 100 156 
69 90 87 85 87 82 81 82 84 
84 96 91 81 84 91 96 100 101 
62 110 78 60 62 78 53 69 93 
62 53 93 81 74 82 53 62 60 
53 90 69 82 80 84 159 135 181 
73 94 111 68 97 116 75 73 111 
75 63 73 73 63 79 63 68 79 
45 58 68 68 58 97 58 56 97 
63 45 68 45 42 58 38 42 45 
107 112 167 114 150 112 107 127 112 
115 112 127 127 105 115 97 105 127 
75 111 114 59 63 75 59 36 63 
97 56 105 56 115 105 36 43 63 
58 42 56 43 45 63 43 38 45 
38 43 36 42 25 56 115 59 112 
59 75 114 31 21 38 21 14 42 
21 42 38 24 21 31 59 114 112 
213 174 218 225 228 241 175 188 207 
207 200 204 188 200 207 206 155 199 
155 206 231 199 202 206 167 186 199 
199 186 202 193 174 213 216 193 213 
211 193 216 211 216 212 212 216 223 
223 216 213 207 204 224 204 237 224 
247 224 237 247 237 241 231 243 228 
228 243 241 241 243 250 55 49 72 
72 49 60 55 71 88 55 88 90 
55 72 71 72 60 76 60 78 76 
96 86 117 100 96 117 84 86 96 
86 84 77 84 80 77 51 36 59 
51 115 56 115 51 59 56 25 51 
27 36 37 37 36 51 41 37 51 
25 41 51 36 31 38 36 27 31 
14 25 42 27 24 31 24 27 19 
24 15 21 14 21 15 6 15 24 
29 27 37 41 29 37 25 11 41 
29 19 27 11 29 41 14 11 25 
7 19 29 16 7 29 233 238 249 
229 246 242 190 219 205 205 219 236 
233 221 238 215 221 233 215 198 221 
198 215 226 229 226 230 226 215 230 
220 198 226 220 226 229 229 195 220 
209 229 242 209 242 161 209 195 229 
168 147 197 190 205 203 191 190 203 
172 184 198 166 184 172 172 198 220 
195 172 220 169 172 195 166 172 169 
209 149 195 209 161 149 142 121 168 
103 121 142 148 119 145 156 140 145 
140 136 145 119 156 145 136 140 157 
158 157 140 166 140 184 187 197 203 
123 103 142 142 168 178 9 5 1 
44 28 54 28 35 54 23 35 28 
121 147 168 165 109 118 157 158 192 
136 157 170 118 160 165 160 118 162 
125 165 191 125 191 147 217 161 245 
195 149 217 196 169 195 158 169 196 
192 158 196 192 196 234 170 157 192 
170 192 189 192 215 189 180 136 170 
180 170 189 148 145 180 145 136 180 
162 148 194 148 180 194 190 162 219 
162 194 219 191 165 160 160 162 190 
160 190 191 191 203 147 197 147 203 
245 161 242 195 217 196 196 217 235 
234 196 235 215 234 230 192 234 215 
233 189 215 39 30 44 32 30 39 
30 20 44 23 33 35 23 26 33 
32 13 30 26 13 32 17 10 26 
26 10 13 10 5 13 15 4 14 
131 66 122 65 66 131 65 57 66 
83 98 61 54 61 98 66 54 98 
57 39 66 66 39 54 39 44 54 
35 61 54 46 32 39 35 33 61 
40 32 46 33 34 40 34 26 32 
34 32 40 64 39 57 61 33 52 
126 103 123 102 108 121 103 102 121 
62 93 126 110 62 126 93 103 126 
93 69 103 69 102 103 102 85 108 
87 85 102 95 109 92 95 91 109 
109 91 101 96 101 91 101 100 119 
74 67 85 74 81 95 240 236 244 
244 239 249 249 248 244 240 244 248 
238 248 249 203 205 187 240 205 236 
227 205 240 221 214 238 221 185 214 
82 74 85 95 81 91 188 146 212 
146 211 212 146 177 211 177 193 211 
182 193 177 143 138 164 73 79 94 
94 79 99 99 71 251 71 72 251 
72 113 251 133 117 128 128 137 133 
117 120 128 99 130 94 94 130 152 
99 251 130 251 113 124 130 251 124 
154 135 159 154 159 174 193 154 174 
135 154 182 182 154 193 146 143 177 
143 182 177 143 146 138 134 138 146 
134 151 138 171 133 137 141 134 137 
137 134 171 152 130 163 186 152 163 
82 90 99 89 74 92 69 87 102 
217 149 161 89 92 104 
POINT_DATA 252
SCALARS k float
LOOKUP_TABLE default
2.78051 1.69907 2.2474 1.41454 -0.602446 0.686366 0.656756 0.671246 1.15432 
1.74413 -0.342722 -0.0350765 0.420727 -0.0392481 0.0317127 -0.329439 -0.116755 -0.597272 
-0.710012 -0.0629454 0.113306 0.240893 0.160244 0.166711 -0.0519123 0.415443 -0.0158767 
0.357983 0.21117 0.233323 0.0781368 0.12131 0.391831 0.131165 0.172905 0.536708 
-1.43127 0.109018 -1.06144 -0.925834 -0.378719 0.216594 0.0983418 0.352841 0.199258 
0.53394 -0.98118 0.302213 0.272111 0.996013 0.373679 -0.0613434 0.203869 1.18483 
-0.123324 0.503416 0.47547 -0.417777 0.344993 -0.345293 0.0112892 0.323892 0.201328 
-0.903093 -0.43882 0.203624 -0.367386 -0.261311 -2.14077 -0.259903 0.319921 0.086277 
0.200393 0.257353 -1.91844 0.377442 0.299573 -0.33324 0.418174 -0.217932 0.276003 
0.252014 -0.445598 0.13794 -0.342524 -0.239016 0.172145 -0.467607 -0.134433 0.0453387 
-0.577041 -0.644934 1.00385 0.314146 -0.370328 0.756158 0.171963 -0.1527 0.250909 
-1.001 0.183214 0.288218 -0.744757 -0.834368 -0.0493246 0.21619 0.374235 -1.00436 
-0.247998 -2.69432 0.745058 0.441499 0.122221 0.850849 0.45603 0.140642 -1.05839 
0.141684 -0.0104067 0.083225 0.00682229 -0.276682 0.421249 0.342893 0.392675 -0.873802 
0.409342 0.397515 0.160524 1.12132 -1.00425 0.534502 -0.245204 0.203468 0.490914 
1.4209 0.744812 -1.03737 0.0434535 0.365017 0.493905 0.493963 -0.643548 0.186568 
0.103708 -0.827703 -0.128204 0.157294 -0.107885 1.73228 0.393758 0.061541 -0.222576 
-0.0065192 2.38793 -0.596352 -0.840644 -0.0140105 0.0715557 1.55703 -0.524443 1.17229 
0.559966 -0.591284 0.279635 -0.175009 0.293304 -0.187717 0.1339 0.0117178 0.0407189 
-1.02371 0.00151861 -0.5177 0.232326 -0.0698439 0.0888875 -0.125628 0.0173274 -0.314484 
-0.266362 -0.656824 -1.03392 -0.34125 0.00156295 -0.974073 0.142254 -0.0220567 -0.602771 
0.0753931 -0.692431 0.393368 -0.396133 -0.626073 -0.268431 -1.58074 -0.215053 0.123483 
-0.644698 0.408758 -0.732963 -0.137242 0.188426 0.138034 -0.0184402 -0.228548 -0.529419 
-0.132094 0.394127 1.47729 0.0232196 0.0710793 0.391512 2.08736 -1.30107 -0.975992 
-0.1958 -1.12452 1.08596 0.203207 0.137153 -0.640794 -0.154208 -0.239961 -0.431502 
0.0435151 0.302026 0.0700917 0.0801779 -0.290233 0.133007 0.202827 0.273231 -0.510476 
0.350704 0.0430954 0.10594 -0.113905 -0.386198 0.239359 -0.175529 0.464485 1.44475 
0.109654 0.215435 1.76736 1.05217 0.464062 -0.362513 0.673474 0.284112 0.0976293 

FIELD FieldData 7
h 1 252 float
4.0764 2.73053 7.28216 2.35872 4.58485 3.94949 4.03322 5.68778 2.69991 
4.3604 0.960837 2.92793 3.72115 1.27096 3.26446 1.79838 -0.216292 6.13764 
0.444375 5.72191 2.49191 2.69371 1.54057 8.05934 3.95023 6.73227 1.21623 
2.87787 2.67872 2.48993 3.43014 2.73014 1.66184 -0.0193386 1.31302 3.57976 
1.99192 1.31119 1.36357 1.19864 0.820395 3.88147 0.269041 0.202132 1.68859 
0.306517 0.831714 0.125396 -0.0699214 1.31964 1.61115 1.56254 6.14505 0.71143 
1.56823 -1.15559 3.32694 1.88777 -0.0167276 1.04698 5.19437 -0.0381509 3.98484 
-1.39816 -0.939709 2.75452 1.25139 -0.975225 -0.804642 1.1516 -1.23801 2.18498 
2.31061 -1.66323 -1.15566 2.23013 3.75497 0.207998 11.0098 -1.49218 -0.813131 
-0.475336 -1.81136 1.33591 -1.04966 -1.43016 0.163093 -1.31586 -0.127137 -0.935025 
-1.91824 -0.381316 -1.26966 3.53767 -0.660203 1.38964 -0.0795639 0.541659 1.97443 
0.328142 0.279338 1.39583 0.145351 -0.0932301 -1.37612 0.722298 2.14525 0.632477 
0.750105 1.09238 10.4355 2.19507 1.49221 1.17865 1.88414 1.87125 1.07159 
0.44411 0.109768 2.09757 1.8201 2.33771 1.25668 1.44444 0.529644 0.821056 
0.379557 0.597145 2.92669 2.04738 0.52554 2.01119 0.00245124 0.251615 1.27962 
9.37588 4.53435 1.21461 0.99227 1.45545 1.3828 3.89394 1.97889 2.4386 
3.0106 1.61919 0.870703 1.64914 3.43079 2.94557 2.10555 3.57604 2.38089 
-0.0232996 4.71651 1.10856 -0.826499 3.8063 3.77709 1.48232 0.841175 4.7945 
1.5195 1.64815 5.35699 -0.62881 1.02824 1.53818 2.75442 2.9088 5.13051 
-0.263493 0.866101 3.42759 3.72254 -1.63092 4.7523 1.86335 3.15007 3.74102 
3.89657 3.6446 1.6742 4.95965 0.646886 0.285545 2.85299 3.43236 -2.31075 
2.33959 1.72698 1.17376 3.44253 1.66973 2.27185 0.641124 2.5875 2.43332 
-0.606536 2.01529 1.12991 3.0829 3.29111 2.46136 1.88709 2.47185 2.15581 
-0.336623 3.28114 2.40363 3.84645 2.90864 -2.30596 6.24005 -0.115706 0.98065 
2.641 2.58696 2.31504 2.58848 2.79129 0.341492 2.36118 3.96962 0.349102 
3.37732 0.0190952 2.21904 3.1665 3.61119 0.0855541 2.92712 3.36627 2.60597 
1.26371 0.507899 2.72762 3.06553 2.3462 2.88561 2.97077 3.58095 0.860343 
3.02021 3.5012 2.25293 2.62939 2.85289 2.96804 3.46227 2.61018 -0.592319 

kmin 1 252 float
10.0192 5.18641 14.42 4.40034 7.44488 8.8302 9.10609 12.1617 5.31369 
8.81713 2.03552 4.88621 7.8915 4.14775 6.52806 3.62994 0.674772 10.7153 
1.23735 12.1693 5.65648 6.19568 2.97949 15.8221 9.12756 13.0574 2.80349 
6.0206 5.10591 5.5769 7.16863 6.55935 4.73387 0.592724 3.8424 6.58419 
4.93013 2.48224 4.44482 2.54067 3.60784 7.32359 1.44261 2.67312 3.40151 
2.07098 3.46465 1.05857 0.850195 4.41333 4.74238 2.61986 12.6778 2.73576 
2.66127 1.71218 5.39892 4.84257 0.528601 3.10165 6.46778 1.10876 9.00778 
-0.690312 0.102782 7.13275 1.92141 -0.236409 0.137153 1.56589 -0.352285 3.64646 
6.56 -0.964019 0.531125 6.03764 9.0539 0.92881 12.0971 0.115137 1.25351 
1.29436 0.788332 2.80289 0.93833 -0.480849 1.07293 0.759384 0.688665 0.883861 
0.29729 0.720631 -1.15115 7.07618 0.453368 1.55229 0.928518 2.01438 4.04705 
1.62894 0.447496 2.41658 2.70168 1.4042 2.66466 1.71171 3.32822 1.61426 
2.56818 3.85697 18.973 4.56065 2.5117 3.43716 2.83804 2.71991 3.74667 
0.71707 0.90916 4.79668 2.73556 2.81782 2.78137 3.36575 2.17472 1.68163 
2.64117 3.19129 6.0904 4.59647 3.02807 3.57615 1.28203 0.333267 2.8234 
20.6791 9.00933 3.00775 2.1231 2.83095 2.8109 8.24846 3.89105 5.62579 
5.62309 3.68653 2.30522 2.88022 6.97702 6.67141 3.30271 7.17876 3.21455 
0.989635 10.4009 1.49093 -0.110957 7.45591 7.51386 3.25627 1.04597 9.81493 
2.31331 3.37631 10.7532 0.973586 2.148 2.10961 4.78361 6.36157 10.2024 
0.154688 2.50576 7.20386 8.67819 -0.486269 9.295 5.00159 5.97606 7.63387 
7.83117 7.41081 3.71436 9.98989 1.4561 1.23013 5.03854 6.42141 -1.13125 
4.7331 2.91317 1.3265 7.07248 5.01283 4.22952 2.94368 6.45873 4.24678 
0.2895 3.23145 2.71744 6.70828 6.12013 4.3241 3.62564 4.64881 4.14192 
0.662852 7.142 6.62688 7.23271 7.86849 0.127718 11.7564 0.700581 2.26212 
7.40158 5.09939 4.8635 4.43973 6.29761 0.787592 4.40296 9.08361 0.951221 
6.17997 0.694326 4.15479 5.71878 9.47173 1.97619 5.18228 6.00118 4.81569 
3.16135 1.9833 4.56349 5.30423 4.34244 4.82507 5.05944 6.17986 2.11115 
5.10697 6.02258 4.86133 6.32775 4.78541 5.15296 6.14295 3.99691 0.19814 

kmax 1 252 float
-1.86635 0.274652 0.144297 0.317094 1.72482 -0.931212 -1.03965 -0.786124 0.0861269 
-0.0963201 -0.113843 0.969646 -0.449202 -1.60584 0.000857312 -0.0331848 -1.10736 1.55998 
-0.348595 -0.725492 -0.672665 -0.808263 0.101642 0.296594 -1.2271 0.40712 -0.371042 
-0.264863 0.251534 -0.597033 -0.308345 -1.09906 -1.41019 -0.631401 -1.21636 0.575329 
-0.946287 0.140143 -1.71768 -0.143397 -1.96705 0.439342 -0.904532 -2.26886 -0.0243352 
-1.45794 -1.80122 -0.807775 -0.990037 -1.77404 -1.52007 0.505222 -0.387721 -1.3129 
0.475183 -4.02335 1.25497 -1.06702 -0.562056 -1.0077 3.92096 -1.18506 -1.03811 
-2.106 -1.9822 -1.62372 0.581373 -1.71404 -1.74644 0.737301 -2.12374 0.7235 
-1.93878 -2.36243 -2.84245 -1.57738 -1.54397 -0.512814 9.92247 -3.0995 -2.87977 
-2.24503 -4.41105 -0.131066 -3.03765 -2.37947 -0.746741 -3.3911 -0.942938 -2.75391 
-4.13378 -1.48326 -1.38818 -0.000841892 -1.77377 1.22699 -1.08765 -0.931062 -0.0981977 
-0.972655 0.111181 0.375089 -2.41098 -1.59066 -5.41689 -0.267113 0.962283 -0.349308 
-1.06797 -1.6722 1.89808 -0.170514 0.472713 -1.07987 0.930242 1.02259 -1.60348 
0.171151 -0.689625 -0.601537 0.904642 1.8576 -0.26802 -0.476877 -1.11543 -0.0395188 
-1.88206 -1.997 -0.237024 -0.501716 -1.97699 0.446232 -1.27713 0.169962 -0.264154 
-1.92736 0.0593728 -0.578532 -0.138558 0.0799439 -0.0452971 -0.460575 0.0667327 -0.748582 
0.398106 -0.448154 -0.563818 0.418049 -0.115449 -0.780271 0.908389 -0.0266846 1.54724 
-1.03623 -0.967881 0.726187 -1.54204 0.156688 0.0403125 -0.291629 0.636381 -0.225942 
0.725692 -0.0800081 -0.039186 -2.23121 -0.0915201 0.966749 0.725231 -0.543969 0.0585735 
-0.681674 -0.773558 -0.348687 -1.2331 -2.77557 0.209611 -1.27488 0.324084 -0.151825 
-0.0380201 -0.121617 -0.365963 -0.0705854 -0.162328 -0.659044 0.667436 0.443323 -3.49025 
-0.0539284 0.54079 1.02102 -0.187417 -1.67337 0.314189 -1.66143 -1.28374 0.619856 
-1.50257 0.799127 -0.457614 -0.542473 0.462093 0.598616 0.148541 0.294894 0.169699 
-1.3361 -0.579716 -1.81961 0.46018 -2.05121 -4.73964 0.723689 -0.931994 -0.300815 
-2.11958 0.0745349 -0.233427 0.737238 -0.715032 -0.104609 0.3194 -1.14437 -0.253017 
0.574664 -0.656135 0.283299 0.61421 -2.24936 -1.80508 0.671965 0.731355 0.396249 
-0.633936 -0.967507 0.891754 0.82683 0.349954 0.946146 0.882098 0.982038 -0.390467 
0.933457 0.979827 -0.355476 -1.06896 0.920383 0.783133 0.781595 1.22345 -1.38278 

hks 16 252 double
0.83887147706 0.8477588482 0.85658186516 0.86533587738 0.87401628437 0.88261854645 0.89113821081 0.89957095187 0.90791262435 
0.91615932659 0.92430747133 0.9323538608 0.94029576283 0.94813098474 0.95585794185 0.9634757177 0.96703403802 0.97429281719 
0.98126180354 0.98793407997 0.99430423897 1.0003684445 1.0061244901 1.0115718511 1.0167117267 1.0215470695 1.0260825987 
1.0303247937 1.0342818657 1.0379637048 1.0413818021 1.0445491449 0.94754657728 0.95516038329 0.96253234851 0.96964880692 
0.97649774454 0.98306893591 0.98935406735 0.99534684377 1.0010430758 1.0064407435 1.0115400345 1.0163433524 1.0208552951 
1.0250826001 1.0290340578 1.0327203919 0.84256722609 0.84983529441 0.85711766243 0.86441204096 0.87171595023 0.8790266755 
0.88634123665 0.89365637336 0.90096854679 0.9082739583 0.91556858456 0.92284822834 0.93010858305 0.93734530888 0.94455411796 
0.95173086521 0.75037883537 0.75997258073 0.76955892894 0.77912971275 0.78867691953 0.79819269338 0.80766934632 0.81709937939 
0.82647551394 0.83579073271 0.8450383296 0.85421196648 0.863305735 0.87231422083 0.88123256784 0.8900565393 0.88430258257 
0.89341879026 0.90227366967 0.91085328504 0.91914546546 0.92713991694 0.93482832047 0.94220441366 0.94926405299 0.95600525423 
0.96242820828 0.96853527038 0.97433092112 0.97982169827 0.98501609921 0.98992445482 0.77257842483 0.78265919048 0.79274285022 
0.80281432685 0.81285880972 0.82286185143 0.83280946945 0.84268825216 0.85248546805 0.86218917632 0.87178833673 0.88127291584 
0.89063398665 0.89986381852 0.908955954 0.91790526979 0.74017814136 0.75159595254 0.76300006614 0.77437021766 0.78568662076 
0.79693013763 0.80808245058 0.81912623215 0.83004531067 0.84082482777 0.85145138409 0.86191316903 0.87220007086 0.88230376355 
0.89221776708 0.90193747914 0.80772789954 0.81778032564 0.82778957113 0.83774030792 0.84761790833 0.85740855322 0.86709933717 
0.87667836963 0.88613487033 0.89545925697 0.90464322301 0.9136798033 0.92256342527 0.93128994371 0.93985665728 0.94826230569 
0.94652021136 0.95461723553 0.96243210474 0.96995293732 0.97716951897 0.98407342567 0.99065813741 0.99691913887 1.002854003 
1.0084624532 1.013746401 1.0187099541 1.0233593947 1.0277031234 1.0317515697 1.0355170694 0.80741926527 0.81701067505 
0.82641949052 0.83562901701 0.84462414962 0.85339147336 0.86191934829 0.87019797878 0.87821946612 0.88597784314 0.89346908984 
0.90069112867 0.90764379865 0.91432880731 0.92074966024 0.92691156822 0.56883001361 0.5765682709 0.58459974973 0.59291456415 
0.60150082115 0.61034469073 0.61943051704 0.62874097 0.63825723525 0.64795923869 0.6578259006 0.66783541271 0.67796553095 
0.68819387555 0.69849822998 0.70885683028 0.79153770278 0.80224611023 0.81278076376 0.82311775903 0.83323484506 0.84311164983 
0.85272988423 0.86207352054 0.87112894154 0.87988505674 0.8883333828 0.89646808572 0.90428598331 0.91178650709 0.91897162423 
0.92584572054 0.62857285445 0.63877919952 0.64906134113 0.65939127911 0.66974128603 0.68008419767 0.69039369173 0.70064455022 
0.71081290089 0.72087643353 0.73081458739 0.74060870638 0.75024215961 0.75970042535 0.76897113755 0.77804409472 0.53180489967 
0.53799598311 0.54456271032 0.55149608041 0.55878478066 0.56641526916 0.57437189387 0.58263704754 0.59119135686 0.60001390318 
0.60908247074 0.61837381751 0.62786396241 0.63752848236 0.64734281172 0.65728253674 0.71805305261 0.72725532826 0.73651928772 
0.74583605185 0.75519648536 0.76459119852 0.77401056259 0.78344474054 0.79288373443 0.80231744911 0.81173577182 0.82112866567 
0.83048627461 0.8397990366 0.84905780119 0.85825394735 0.70980695954 0.72065936923 0.73156805351 0.74251105049 0.75346668649 
0.7644137764 0.77533182045 0.78620119477 0.79700333272 0.80772089406 0.81833791864 0.82883996163 0.83921420724 0.84944955823 
0.85953669916 0.86946813168 0.79272153785 0.8025786608 0.81228184001 0.82181128113 0.83114854744 0.84027673419 0.84918062794 
0.85784684755 0.86626396428 0.87442259805 0.88231548749 0.88993753141 0.89728580043 0.90435951723 0.91116000561 0.91769060829 
0.74381482319 0.7551061978 0.76623489461 0.77717894071 0.78791770143 0.79843206633 0.80870462414 0.81871982324 0.82846411396 
0.8379260689 0.84709647772 0.85596841303 0.86453726446 0.87280073888 0.88075882544 0.8884137252 0.68204202616 0.68868070182 
0.69563913812 0.70290409473 0.7104603656 0.71829092087 0.72637707976 0.73469871284 0.74323447111 0.75196203846 0.76085840286 
0.76990014125 0.77906371175 0.78832574672 0.79766333981 0.80705431984 0.59347152548 0.60257031229 0.61182221175 0.62120710001 
0.63070380594 0.64029035508 0.64994423132 0.65964265042 0.6693628389 0.67908231144 0.68877913983 0.69843220675 0.70802143813 
0.71752800836 0.72693451381 0.73622511101 0.47982206146 0.48581698535 0.4921744572 0.49888788106 0.50594831411 0.5133445295 
0.52106312119 0.5290886497 0.53740382592 0.54598972927 0.55482605468 0.56389138217 0.5731634618 0.58261950615 0.59223648272 
0.60199139816 0.59792417799 0.60676486731 0.61577159436 0.62492344574 0.63419858074 0.64357447242 0.65302816153 0.66253651793 
0.672076504 0.68162543427 0.69116122538 0.70066263066 0.71010945413 0.71948273915 0.72876492767 0.73793998722 0.52699704664 
0.53542477616 0.54408471391 0.55295608579 0.56201667324 0.57124308824 0.58061106697 0.59009577542 0.59967211958 0.60931505287 
0.61899987355 0.62870250509 0.6383997532 0.64806953399 0.65769106887 0.66724504282 0.60877775275 0.61870042031 0.62879525173 
0.63904708712 0.6494396102 0.65995548143 0.67057649949 0.68128378876 0.69205800912 0.70287958339 0.71372893676 0.72458674183 
0.73543416241 0.74625308916 0.75702636026 0.76773796084 0.42126199351 0.4239148628 0.42691945654 0.43028311477 0.43401086465 
0.43810528 0.44256638487 0.44739160554 0.45257577371 0.45811118178 0.46398768935 0.47019287808 0.47671225034 0.48352946525 
0.4906266047 0.49798446063 0.53317871002 0.54111860796 0.54932881948 0.55778577422 0.56646441464 0.57533852123 0.58438105258 