# vtk DataFile Version 5.1
vtk output
ASCII
DATASET POLYDATA
POINTS 252 float
-0.067836 0.276814 0.051248 -0.149123 0.278978 0.008607 0.1017 0.288877 0.042783 
0.012484 0.294406 -0.01453 -0.375994 0.231561 0.043357 -0.459165 0.236542 -0.0252 
-0.094505 0.276055 -0.051037 -0.262474 0.251148 -0.027042 -0.412728 0.23886 -0.078022 
-0.242448 0.234638 0.04427 0.199142 0.290967 -0.019473 -0.546788 0.182065 -0.044863 
0.063263 0.259576 -0.08751 0.253762 0.279484 0.063998 0.120492 0.257899 0.10024 
-0.321235 0.211446 -0.126666 0.318659 0.253752 -0.06151 -0.479072 0.211341 0.027819 
0.364074 0.249798 0.083488 -0.226608 0.201025 0.083717 0.331174 0.273363 -0.020892 
0.289326 0.240703 0.114903 -0.198763 0.232311 -0.090543 -0.183208 0.179611 -0.129231 
0.186103 0.250543 -0.093738 -0.500609 0.156639 -0.11497 0.218293 0.187085 0.141038 
0.010211 0.223227 -0.119329 -0.55032 0.112876 0.105201 -0.581209 0.161947 0.036938 
0.467621 0.228296 0.04491 0.451393 0.237098 0.014259 0.040143 0.198966 0.13271 
-0.008294 0.214224 0.121005 -0.419038 0.187225 -0.121179 -0.653113 0.108661 -0.002404 
-0.308109 0.183707 0.094046 -0.615355 0.119384 -0.062194 -0.204991 0.097874 0.117931 
0.417025 0.22242 -0.040965 0.167924 0.113167 0.140231 -0.468873 0.10032 0.089153 
-0.423168 0.166492 0.071684 0.431138 0.199047 0.083086 -0.09813 0.118888 0.134642 
0.245771 0.187895 -0.118743 -0.632132 0.096717 0.083317 -0.689999 0.020658 -0.002103 
0.074654 0.179614 -0.134106 -0.426928 0.036839 0.050937 0.525625 0.175827 0.070779 
-0.202159 0.140833 0.11159 -0.178335 0.084086 -0.15684 0.024167 0.124375 0.142273 
0.500291 0.200379 -0.013862 0.58442 0.200977 0.010921 0.586039 0.165125 -0.011492 
0.467664 0.142782 -0.015772 -0.605076 0.031014 0.150494 -0.14592 0.017824 0.120337 
-0.039688 0.127934 -0.153838 -0.357118 0.099582 -0.151949 -0.58009 0.08214 -0.106159 
-0.263159 0.066947 0.124202 -0.432342 0.079963 -0.128073 -0.685505 0.038031 -0.084428 
0.356717 0.107354 0.155835 0.258696 0.115726 -0.147777 0.574571 0.181722 0.064105 
0.654993 0.126923 0.064384 -0.474103 0.008473 0.079773 -0.481516 0.020839 -0.091406 
-0.703618 -0.009404 -0.028828 -0.630282 0.005611 -0.095941 -0.235886 0.104683 -0.165293 
-0.616137 0.003213 0.124826 0.376412 0.140801 -0.119844 0.084167 0.058352 0.123647 
-0.464181 -0.033923 0.024215 0.694823 0.112223 -0.009195 -0.66456 -0.00276 0.103802 
0.421245 0.047418 0.128107 0.557073 0.128827 0.040894 -0.388532 -0.028994 -0.09648 
-0.024986 0.021054 0.118567 0.15239 0.094652 -0.125365 0.68411 0.173104 0.039026 
0.570854 0.1354 0.004905 -0.429736 -0.007419 -0.03784 0.270874 0.041504 0.176831 
0.358835 0.032164 0.162645 0.465099 0.109332 0.050535 -0.197338 -0.033579 0.130914 
0.359044 0.061093 -0.144223 0.220058 0.05843 0.175086 0.752911 0.085312 0.05888 
0.433542 0.061565 -0.093636 0.70849 0.138099 0.006769 0.666061 0.088745 0.031258 
-0.347189 0.035169 0.098676 -0.642824 -0.058438 0.093054 -0.232923 0.016582 -0.163161 
-0.360616 -0.066829 0.032743 -0.556649 -0.027401 0.122117 0.821355 0.053854 0.01785 
-0.054684 0.036981 -0.148816 0.209325 0.069116 -0.170233 -0.684338 -0.039493 -0.026263 
0.009945 -0.00722 -0.125563 0.374325 -0.016535 0.146137 -0.584576 -0.050659 -0.098744 
0.082162 -0.044622 0.148405 -0.504054 -0.118887 -0.0524 0.118271 -0.013954 -0.129439 
-0.581724 -0.112915 0.059257 0.376637 -0.018544 -0.125213 -0.618942 -0.096504 -0.043384 
-0.310706 -0.068404 0.075382 -0.246727 -0.069292 0.123939 -0.336694 -0.087251 -0.061076 
-0.466033 -0.038226 -0.034893 0.082946 -0.043475 -0.100907 0.436702 0.030164 0.011162 
0.77493 0.025279 0.04981 -0.121674 -0.047234 -0.129422 -0.354977 -0.000492 -0.133968 
0.801163 0.047155 -0.010744 0.141702 -0.011969 -0.185927 0.084057 -0.021325 0.09249 
-0.063279 -0.072834 0.067139 0.850656 -0.012534 0.031831 0.125824 -0.081849 0.185523 
0.113173 -0.041672 -0.163353 -0.12089 -0.057755 0.091486 -0.000555 -0.083344 0.033302 
0.419502 -0.016451 -0.056015 0.754464 0.038565 -0.004204 0.38905 -0.045969 0.097779 
-0.28246 -0.090755 0.050495 0.118056 -0.043353 -0.031041 0.187199 -0.05288 -0.000516 
-0.492425 -0.106355 0.03197 0.017387 -0.085868 -0.041154 0.086732 -0.051813 0.004587 
0.268118 -0.046099 -0.170402 0.828985 -0.037735 -0.024707 -0.547597 -0.128038 -0.005893 
-0.059737 -0.095453 -0.008308 -0.120481 -0.099345 0.068657 -0.105452 -0.110709 0.021965 
-0.192897 -0.117722 -0.018473 0.135874 -0.057257 0.046966 -0.067031 -0.080044 -0.088278 
-0.199275 -0.106371 0.015651 0.143136 -0.097576 0.068101 0.238377 -0.088377 0.192567 
-0.24703 -0.105797 -0.121504 -0.124856 -0.114019 -0.06679 0.827495 -0.080477 0.019477 
-0.131158 -0.106893 -0.129126 -0.210533 -0.145558 0.096905 0.772318 0.005866 0.016388 
-0.271102 -0.113214 -0.055851 0.137503 -0.14557 0.169516 0.368464 -0.06096 0.00605 
0.214809 -0.119992 0.050382 0.106502 -0.054944 -0.076578 0.328991 -0.10593 0.073349 
0.148814 -0.123697 0.117734 0.283774 -0.10013 -0.017298 -0.175186 -0.158333 -0.04049 
0.19189 -0.089392 -0.081855 0.878425 -0.058544 -0.015416 0.339019 -0.104278 -0.088642 
-0.167183 -0.181229 0.037272 0.859128 -0.072938 0.034085 0.267905 -0.136604 0.136491 
-0.113918 -0.218032 0.091358 0.219207 -0.13577 0.108564 0.229223 -0.142004 -0.13323 
-0.237814 -0.259495 0.042559 -0.257421 -0.155457 -0.033083 -0.131361 -0.138403 0.041512 
0.293494 -0.112125 0.042019 0.254377 -0.126541 0.172968 -0.189292 -0.171569 -0.104604 
0.303216 -0.083679 -0.150101 0.894788 -0.085427 0.01222 0.171714 -0.12346 -0.207345 
0.205073 -0.173739 0.20137 -0.137417 -0.251519 0.040801 -0.249126 -0.190837 -0.062889 
0.166529 -0.125086 -0.156796 -0.263007 -0.235807 0.016701 -0.13762 -0.166175 -0.07829 
0.289975 -0.116426 -0.147574 -0.094461 -0.162225 0.086061 0.195977 -0.211653 -0.238659 
0.170282 -0.219997 0.13709 -0.241841 -0.307559 -0.01377 0.150272 -0.192398 0.16128 
0.884515 -0.139036 -0.029813 0.25433 -0.237783 -0.243357 -0.201306 -0.310459 -0.00156 
-0.003245 -0.272978 0.221058 -0.028639 -0.309674 0.040488 0.257064 -0.207307 -0.188736 
-0.137597 -0.233377 0.082442 0.076172 -0.257773 0.184904 0.224291 -0.224891 0.14996 
0.84889 -0.200109 0.003726 0.832265 -0.176725 -0.041718 0.023792 -0.258901 0.154887 
-0.070741 -0.306343 -0.026461 0.003497 -0.322822 0.152863 -0.091073 -0.233306 0.006052 
0.113316 -0.271329 0.220107 0.034238 -0.322678 0.221439 0.239849 -0.131768 -0.224416 
0.22245 -0.245775 0.185093 -0.189558 -0.269491 0.011752 -0.017802 -0.285639 -0.001142 
0.18533 -0.218826 -0.198795 -0.268619 -0.310394 0.029105 0.104353 -0.316214 0.212968 
0.195419 -0.291605 -0.207824 0.092575 -0.299662 0.15399 -0.203607 -0.341413 0.14238 
-0.245681 -0.331325 0.11602 -0.069239 -0.325485 0.032321 0.234291 -0.319462 -0.255935 
0.093503 -0.326047 0.182668 0.841248 -0.239323 -0.070164 -0.236299 -0.371422 0.179159 
0.813212 -0.270849 -0.025992 -0.008613 -0.358248 0.015813 -0.299554 -0.392012 0.141583 
0.206717 -0.309151 -0.289488 0.876398 -0.228438 -0.016149 -0.187118 -0.37653 0.107705 
-0.030804 -0.335257 -0.046526 -0.088144 -0.324687 0.006122 0.17739 -0.296733 -0.280159 
-0.067249 -0.390975 -0.044871 -0.247329 -0.432388 0.132004 -0.242834 -0.411973 0.096628 
0.23588 -0.29558 -0.225018 0.147239 -0.345787 -0.214802 0.120486 -0.349619 -0.29311 
-0.048863 -0.385433 0.033028 0.179402 -0.357732 -0.300713 0.172434 -0.380773 -0.241944 

POLYGONS 501 1500
OFFSETS vtktypeint64
0 3 6 9 12 15 18 21 24 
27 30 33 36 39 42 45 48 51 
54 57 60 63 66 69 72 75 78 
81 84 87 90 93 96 99 102 105 
108 111 114 117 120 123 126 129 132 
135 138 141 144 147 150 153 156 159 
162 165 168 171 174 177 180 183 186 
189 192 195 198 201 204 207 210 213 
216 219 222 225 228 231 234 237 240 
243 246 249 252 255 258 261 264 267 
270 273 276 279 282 285 288 291 294 
297 300 303 306 309 312 315 318 321 
324 327 330 333 336 339 342 345 348 
351 354 357 360 363 366 369 372 375 
378 381 384 387 390 393 396 399 402 
405 408 411 414 417 420 423 426 429 
432 435 438 441 444 447 450 453 456 
459 462 465 468 471 474 477 480 483 
486 489 492 495 498 501 504 507 510 
513 516 519 522 525 528 531 534 537 
540 543 546 549 552 555 558 561 564 
567 570 573 576 579 582 585 588 591 
594 597 600 603 606 609 612 615 618 
621 624 627 630 633 636 639 642 645 
648 651 654 657 660 663 666 669 672 
675 678 681 684 687 690 693 696 699 
702 705 708 711 714 717 720 723 726 
729 732 735 738 741 744 747 750 753 
756 759 762 765 768 771 774 777 780 
783 786 789 792 795 798 801 804 807 
810 813 816 819 822 825 828 831 834 
837 840 843 846 849 852 855 858 861 
864 867 870 873 876 879 882 885 888 
891 894 897 900 903 906 909 912 915 
918 921 924 927 930 933 936 939 942 
945 948 951 954 957 960 963 966 969 
972 975 978 981 984 987 990 993 996 
999 1002 1005 1008 1011 1014 1017 1020 1023 
1026 1029 1032 1035 1038 1041 1044 1047 1050 
1053 1056 1059 1062 1065 1068 1071 1074 1077 
1080 1083 1086 1089 1092 1095 1098 1101 1104 
1107 1110 1113 1116 1119 1122 1125 1128 1131 
1134 1137 1140 1143 1146 1149 1152 1155 1158 
1161 1164 1167 1170 1173 1176 1179 1182 1185 
1188 1191 1194 1197 1200 1203 1206 1209 1212 
1215 1218 1221 1224 1227 1230 1233 1236 1239 
1242 1245 1248 1251 1254 1257 1260 1263 1266 
1269 1272 1275 1278 1281 1284 1287 1290 1293 
1296 1299 1302 1305 1308 1311 1314 1317 1320 
1323 1326 1329 1332 1335 1338 1341 1344 1347 
1350 1353 1356 1359 1362 1365 1368 1371 1374 
1377 1380 1383 1386 1389 1392 1395 1398 1401 
1404 1407 1410 1413 1416 1419 1422 1425 1428 
1431 1434 1437 1440 1443 1446 1449 1452 1455 
1458 1461 1464 1467 1470 1473 1476 1479 1482 
1485 1488 1491 1494 1497 1500 
CONNECTIVITY vtktypeint64
247 242 248 35 37 65 83 64 125 
72 73 107 242 237 250 237 230 250 
250 230 251 248 242 250 248 250 251 
247 248 251 34 15 61 8 34 25 
11 25 37 15 74 61 25 34 61 
25 61 64 25 64 62 37 25 62 
37 62 65 61 74 101 64 61 125 
62 64 71 62 71 110 47 65 72 
65 62 73 61 101 125 62 110 73 
73 110 107 65 73 72 107 110 116 
189 131 163 184 155 189 137 109 184 
130 187 172 104 130 172 155 131 189 
155 184 109 90 155 109 175 123 158 
123 161 158 95 123 175 130 95 175 
126 104 172 94 131 155 89 94 155 
90 89 155 81 90 109 69 98 123 
123 98 161 95 69 123 95 130 104 
104 86 95 90 66 89 81 66 90 
86 69 95 66 26 89 86 68 69 
50 82 69 86 97 55 43 21 66 
43 18 21 30 43 50 30 50 68 
30 68 86 30 86 55 30 18 43 
238 210 234 204 214 217 224 217 231 
224 216 217 204 217 216 231 219 224 
219 216 224 210 211 234 158 211 210 
232 201 238 187 210 238 208 204 216 
212 204 208 216 200 208 219 189 216 
216 189 200 209 219 231 176 219 209 
210 175 158 201 187 238 187 175 210 
163 200 189 184 219 176 184 189 219 
158 145 211 172 187 201 68 50 69 
76 96 93 130 175 187 58 80 75 
103 75 100 43 66 81 21 26 66 
81 109 137 161 145 158 82 50 91 
50 43 91 91 43 81 89 26 40 
97 86 104 79 97 126 87 79 98 
98 82 87 69 82 98 89 40 94 
136 79 126 97 104 126 98 136 161 
98 79 136 122 91 137 91 81 137 
94 111 131 143 139 151 136 126 145 
161 136 145 126 172 145 167 137 176 
137 184 176 167 176 183 168 178 198 
111 163 131 145 172 201 178 183 176 
67 76 93 46 80 58 58 75 103 
70 58 103 41 58 70 41 28 58 
45 76 67 58 28 46 42 28 41 
49 41 70 42 49 99 49 42 41 
36 42 99 45 16 76 12 10 24 
24 16 45 4 42 36 9 4 36 
9 36 19 9 1 7 6 0 3 
0 6 1 16 39 76 0 1 9 
203 239 245 227 228 233 180 228 227 
205 177 229 196 177 205 177 160 207 
92 160 177 92 177 196 148 196 182 
151 140 183 183 140 169 164 183 169 
164 169 173 92 118 160 133 196 148 
133 92 196 129 134 128 134 143 128 
128 143 151 151 139 140 135 122 164 
59 92 133 84 133 129 84 129 128 
96 122 135 96 57 122 59 38 92 
38 63 92 84 59 133 239 227 233 
154 128 151 84 53 59 222 197 242 
197 237 242 197 218 237 156 101 159 
71 120 112 110 71 112 178 176 209 
198 209 231 200 198 208 91 87 82 
163 168 200 145 201 211 198 178 209 
200 168 198 211 201 232 208 198 226 
212 208 226 198 231 226 212 226 214 
214 226 231 217 214 231 204 212 214 
234 211 232 232 238 234 20 13 18 
13 21 18 14 21 13 31 18 30 
21 14 26 14 32 26 14 33 32 
32 53 40 32 33 44 54 30 55 
54 55 56 31 30 54 26 32 40 
53 32 44 56 55 97 54 56 57 
87 57 56 40 53 77 83 125 119 
125 101 156 47 72 107 88 120 71 
77 84 128 88 64 83 74 52 101 
52 124 101 52 105 124 71 64 88 
52 60 105 47 35 65 74 23 52 
23 60 52 27 60 23 11 37 35 
11 35 29 15 23 74 23 15 22 
11 8 25 237 202 230 218 202 237 
116 110 146 146 110 112 119 125 156 
129 149 147 129 148 149 133 148 129 
134 129 147 147 142 134 142 143 134 
142 139 143 140 139 166 173 115 135 
99 117 118 63 99 118 92 63 118 
39 96 76 36 99 63 36 63 38 
51 36 38 19 36 51 39 20 31 
16 20 39 0 9 19 0 19 33 
3 0 2 3 2 10 16 10 20 
236 245 244 245 239 244 239 233 244 
96 135 115 33 19 51 233 236 244 
185 194 220 194 170 220 179 206 195 
218 195 202 218 186 195 150 162 181 
150 181 170 194 157 170 157 150 170 
159 157 194 152 157 159 8 7 15 
4 8 5 113 127 132 120 78 141 
127 144 218 132 127 188 124 152 159 
101 124 159 162 119 156 112 120 141 
112 141 146 146 114 116 127 218 188 
192 132 188 159 194 185 156 159 185 
191 156 185 162 156 191 181 162 191 
188 218 197 188 197 222 192 188 222 
202 206 246 202 246 230 206 225 246 
246 225 247 225 222 242 225 242 247 
230 246 251 246 247 251 34 8 15 
5 8 11 166 132 192 144 186 218 
138 162 150 153 138 150 138 119 162 
152 147 157 124 108 152 121 142 152 
108 121 152 166 121 113 141 114 146 
78 70 141 166 113 132 85 121 108 
121 85 113 85 106 113 127 106 144 
106 93 144 180 181 193 157 149 150 
102 119 138 44 38 59 53 44 59 
39 57 96 44 51 38 31 54 39 
39 54 57 33 51 44 14 0 33 
2 0 14 13 2 14 10 2 13 
10 13 20 228 236 233 154 178 168 
178 165 183 178 154 165 154 151 165 
151 183 165 183 164 167 164 137 167 
111 128 154 94 128 111 164 122 137 
57 91 122 40 77 128 94 40 128 
56 97 79 53 84 77 57 87 91 
20 18 31 163 154 168 111 154 163 
56 79 87 215 240 213 215 221 240 
180 193 223 193 191 223 223 191 199 
4 5 17 181 191 193 202 195 206 
206 179 222 179 192 222 185 220 203 
191 185 199 185 203 199 206 222 225 
6 27 22 7 6 22 7 22 15 
8 4 7 17 5 11 29 17 11 
22 27 23 29 35 46 60 27 48 
46 35 47 60 48 85 105 60 85 
46 47 80 105 85 108 120 88 78 
80 47 107 80 107 100 113 106 127 
105 108 124 102 88 119 88 83 119 
114 100 116 100 107 116 170 180 220 
170 181 180 174 153 182 138 153 174 
157 147 149 171 192 179 192 171 166 
171 140 166 186 173 195 115 173 186 
144 115 186 117 102 138 153 150 149 
152 142 147 121 139 142 166 139 121 
144 93 115 141 103 114 103 100 114 
70 103 141 99 102 117 93 96 115 
99 49 102 174 215 213 179 195 169 
148 153 149 102 49 88 78 88 49 
85 67 106 106 67 93 49 70 78 
45 67 85 48 45 85 28 29 46 
42 17 28 17 29 28 27 45 48 
27 24 45 27 12 24 4 17 42 
7 4 9 7 1 6 6 12 27 
6 3 12 240 235 243 213 240 243 
241 213 243 12 3 10 10 16 24 
249 241 243 243 235 249 236 228 245 
223 199 245 228 223 245 199 203 245 
229 241 249 205 229 249 205 249 235 
135 164 173 148 182 153 118 117 160 
117 138 160 171 179 169 140 171 169 
160 138 174 182 196 215 221 215 196 
182 215 174 160 174 190 207 160 190 
221 196 205 229 177 207 190 174 213 
207 190 229 229 190 241 190 213 241 
180 227 220 220 227 239 203 220 239 
180 223 228 221 205 235 240 221 235 
169 195 173 80 100 75 
POINT_DATA 252
SCALARS k float
LOOKUP_TABLE default
0.0537422 0.117954 0.026148 0.0697624 0.130854 0.233383 0.0399804 -0.127098 0.245368 
-0.10538 0.0651062 0.0602058 0.0281367 0.0884984 0.0436945 0.148116 0.0932964 0.00750691 
0.132552 -0.0654889 0.127338 0.133974 -0.0862082 -0.0627376 0.0707803 0.124991 -0.00578606 
0.0405574 0.0207203 0.144531 -0.205101 0.0884984 0.0271987 0.0400707 0.0338835 0.221712 
0.0928945 0.0220512 -0.0409222 -0.14546 -0.223567 -0.0335118 -0.366739 -0.336575 0.0312285 
-0.0620962 0.236609 -0.0992068 -0.00125742 -1.20437 -0.162145 -0.0299296 -0.0884014 0.0202324 
-0.309778 0.147079 -0.0797027 -1.05283 0.948754 -0.120171 0.0487009 0.043147 -0.0745621 
0.0641156 -0.345146 1.02582 0.120502 -0.057447 0.0681045 -0.0868084 -0.0107504 -0.296451 
0.760277 -0.0235443 0.112082 -0.0256385 0.179144 -0.00502586 -0.142984 -0.161219 0.468034 
0.299417 -0.603572 0.206733 -0.00562018 -0.260037 0.554841 -0.292992 -1.69014 -0.0495496 
0.0592693 -1.40497 0.0363466 0.102745 -0.00760555 0.192372 0.28994 0.0837495 -0.444455 
0.0131931 0.455886 0.0804166 0.248015 0.205415 0.38891 0.0313568 0.0332159 0.0665214 
-0.0164109 0.0960727 0.322812 0.930768 1.17877 -0.83072 0.4904 0.115821 0.421056 
-0.097937 0.192514 0.126129 -0.334061 -0.675344 -0.0227367 -0.129204 -0.166466 0.0282914 
0.0777163 0.314868 -2.12831 -0.182413 0.0948448 0.257029 0.527776 -0.603863 0.139761 
0.216161 -0.16172 0.198147 -0.358893 -0.0452124 0.183395 0.656244 0.13496 -0.238715 
-0.188448 -0.427364 0.19353 -0.151392 -1.9226 0.11603 -0.909308 -0.591154 -0.408643 
-1.08929 0.186032 -0.02773 -0.193186 -0.786498 -0.520474 0.0898675 -0.169583 -0.285269 
-1.34159 -0.202275 -0.16843 0.353353 -0.734826 0.126939 -0.454598 -0.482666 -0.507798 
0.0127773 0.272254 0.298917 -0.672909 0.102029 -0.808053 0.115317 -0.519441 -0.505281 
-0.507616 -0.733753 -0.333995 -0.304167 -0.21566 -0.015672 -0.221929 0.711547 -0.271091 
-0.365211 -0.0157092 -0.128464 -0.479988 0.176218 0.0646336 -0.918816 -0.268403 -0.390509 
-0.407925 0.285455 -1.61287 0.136136 0.15457 0.142509 2.25582 0.00480604 -0.220452 
0.149823 -1.18869 0.268853 -0.129105 -0.425805 1.44634 -0.15315 2.25801 -0.153156 
-0.201382 0.938276 -0.0245667 0.79687 -0.671732 0.507836 -0.488512 0.157695 0.401414 
-0.731548 -0.292249 0.481622 -0.736977 -0.419353 0.47618 0.379093 1.89752 1.75632 
3.40205 1.09007 2.51442 0.190526 1.04615 0.73434 0.984409 -0.340739 -0.533095 
2.7013 1.71346 -0.206362 0.10731 1.37016 2.67012 1.81712 1.11154 1.47208 

FIELD FieldData 7
h 1 252 float
4.28666 7.65946 7.0925 7.24751 7.46194 8.1123 5.31221 6.74245 7.79629 
5.28534 6.11353 9.53781 4.77321 7.18138 2.21815 4.25074 1.05292 5.05656 
5.99227 2.62649 7.75944 1.39267 4.199 2.12009 2.79723 3.57147 0.839765 
2.54417 2.80134 6.66064 5.34299 7.36408 1.19365 2.32756 3.01485 10.3851 
1.62795 7.18391 1.16722 -0.0475875 0.444713 1.00168 1.1639 0.109958 1.16094 
0.747125 5.96849 11.7094 0.437446 0.0360461 -0.0748398 1.60914 1.58022 0.777731 
0.680034 3.52694 1.32724 0.569717 2.65547 0.927748 0.978401 1.81808 1.23619 
1.26493 0.927004 5.14929 1.11383 0.826173 1.20515 0.426356 0.837422 0.705705 
7.47207 2.99222 2.23468 4.74297 0.844323 0.870706 -1.39872 0.719098 7.30614 
2.3872 0.249253 1.15752 0.877713 0.325571 3.27221 -0.286858 0.270583 0.96731 
1.46652 0.338971 1.31757 0.856808 0.824266 0.388176 2.04264 0.929386 -11.4444 
1.01431 9.65327 1.71402 2.64514 3.45263 9.33145 1.04984 0.814776 11.9588 
1.22503 3.31427 2.78074 0.625956 3.06989 0.0326096 7.54921 3.37065 8.91131 
0.89721 1.47633 1.13551 -1.23781 1.3189 -0.490929 0.814775 1.45715 1.22623 
0.340402 0.569605 0.80222 0.622716 0.662739 0.61633 1.08953 0.735113 0.731678 
1.07685 0.425713 1.25535 3.68941 -3.45833 -2.80997 3.19209 -0.43693 -1.83096 
0.575974 -3.87444 7.74809 -0.616563 -1.71232 2.76908 -0.405461 -1.1649 0.971146 
-0.88141 -1.00163 0.73931 1.46461 1.5742 1.45479 1.66201 1.72252 -0.564355 
1.9648 1.44628 -1.83683 1.06838 -2.28688 -1.14445 -4.17255 -0.394742 -2.21541 
-0.494688 -0.50709 -0.513071 -0.993303 0.318838 -0.687898 0.329334 0.663803 0.63991 
-2.42581 -1.7699 -2.05756 0.678603 3.81495 1.7043 3.769 0.573727 1.80316 
-0.397111 3.10208 1.65981 -3.12829 4.39999 1.24825 -0.588984 1.56417 -0.276666 
-2.42881 0.365032 2.08567 1.55052 1.99333 1.68165 2.91674 -1.29439 1.59497 
2.00938 15.8636 0.459446 0.323561 -5.05933 1.40467 -1.52509 1.91015 2.65131 
-0.589809 2.57975 0.329442 1.5562 -0.593486 -2.57159 -0.405464 4.05821 1.55373 
1.35348 -3.29536 27.6424 0.00478888 0.889097 0.724343 0.168535 -1.45859 1.64453 
-2.04899 2.82009 -0.660619 -0.323563 9.25265 1.13253 3.51855 5.51297 6.18508 
2.30114 3.08485 0.610253 1.07844 1.66646 8.58762 0.734597 2.00767 2.54667 

kmin 1 252 float
8.00683 14.7161 13.5624 13.8071 14.558 15.6715 9.92983 12.8834 15.0166 
10.3042 11.4377 17.8431 8.8943 13.5191 3.77215 7.801 1.44948 9.59824 
10.9239 4.91499 14.6969 2.01272 7.75981 3.76435 4.90327 6.05464 1.13991 
4.43766 5.4438 12.6808 9.67863 13.8375 1.87913 4.11638 5.27816 19.1422 
3.00958 12.7863 2.23304 0.607867 0.915436 2.45264 2.47531 0.804604 1.98173 
0.945367 10.6154 17.8322 0.910688 0.968236 0.514506 2.92316 2.74094 1.19168 
1.50354 6.42164 2.59415 2.72351 6.0939 1.52996 1.5849 2.93154 2.45617 
2.27695 1.29913 8.64415 1.47186 1.54329 2.5016 1.07039 2.21713 0.994515 
10.8267 5.77737 3.81274 9.69897 1.01686 1.13318 0.0614015 1.69106 8.98461 
4.97093 0.865141 2.1489 1.25229 0.962895 6.0976 0.874349 2.25834 1.54536 
2.18933 1.81519 2.3515 1.50529 1.88416 1.55582 4.38914 2.14025 -4.6653 
1.83591 16.4135 2.63829 6.01846 9.55733 17.5727 1.73453 1.47943 19.2575 
1.85945 6.01953 5.21432 1.63017 5.62765 1.59127 14.3955 7.05642 17.7137 
1.64708 2.46251 2.46418 0.949502 2.10574 0.182409 1.30114 2.40355 1.6483 
1.33794 1.28001 1.45634 1.51885 1.46687 1.65677 4.94062 1.25418 1.84529 
2.9107 1.19136 2.51245 7.70298 0.310731 1.64659 9.9888 1.00713 0.348701 
0.934531 -0.680143 15.2196 0.974365 1.22767 5.18199 0.0217976 0.580506 1.79691 
0.171637 -0.762938 1.39762 2.00931 4.10382 6.80281 2.62407 2.85037 3.67104 
3.96738 7.97486 0.992509 1.62449 -1.66544 1.3184 1.57023 1.71101 -0.053057 
0.541077 -0.165317 1.98045 -0.448442 1.29462 -0.103012 0.539756 1.35775 1.87042 
1.37132 0.153649 -0.115091 1.91989 6.79746 2.73362 7.89802 1.24624 7.27758 
0.527108 8.62581 2.65451 -0.613994 9.1007 3.5374 0.780889 2.24917 1.62841 
0.959105 1.04194 4.26064 3.1666 5.55614 4.7905 7.0503 0.72011 5.00953 
4.52177 37.3477 1.01014 0.857612 -0.823964 13.3897 0.0155033 5.27394 5.14969 
0.513801 5.79898 1.33334 4.07796 1.51792 0.730141 3.65788 9.97465 3.67585 
8.33922 0.0801742 58.5915 6.3867 2.31034 2.33119 1.33615 0.261416 4.51711 
-1.3055 6.16906 0.366011 0.669943 18.3521 3.69448 8.06392 13.012 14.4587 
5.57608 6.73573 2.06976 4.55993 7.22325 20.1786 2.3833 4.12814 5.74833 

kmax 1 252 float
0.566486 0.60282 0.622638 0.687902 0.365915 0.553057 0.694591 0.601507 0.575976 
0.266474 0.789318 1.23257 0.652126 0.843661 0.664142 0.700472 0.656372 0.514872 
1.06061 0.337985 0.821958 0.772613 0.638195 0.475836 0.691192 1.0883 0.539617 
0.650674 0.158881 0.640437 1.00736 0.89071 0.508165 0.538738 0.751545 1.628 
0.246316 1.58151 0.101396 -0.703042 -0.0260105 -0.449293 -0.147505 -0.584688 0.340146 
0.548883 1.32159 5.58657 -0.0357949 -0.896144 -0.664186 0.295118 0.419507 0.363782 
-0.143477 0.63224 0.0603327 -1.58408 -0.78296 0.32554 0.371905 0.704623 0.016212 
0.252905 0.55488 1.65443 0.755795 0.109051 -0.0913022 -0.217682 -0.542282 0.416894 
4.11748 0.207058 0.656615 -0.213021 0.671783 0.608231 -2.85885 -0.252868 5.62767 
-0.19654 -0.366636 0.166135 0.50314 -0.311754 0.446824 -1.44806 -1.71717 0.389256 
0.743699 -1.13725 0.283629 0.208323 -0.235633 -0.779465 -0.303855 -0.28148 -18.2236 
0.192715 2.89308 0.789743 -0.728181 -2.65206 1.09019 0.365153 0.150127 4.66002 
0.590611 0.609018 0.347164 -0.378258 0.512135 -1.52605 0.702958 -0.315115 0.108925 
0.147342 0.490148 -0.193168 -3.42513 0.532056 -1.16427 0.328409 0.510751 0.804155 
-0.657138 -0.140795 0.148099 -0.273417 -0.141395 -0.424114 -2.76156 0.216046 -0.381931 
-0.75701 -0.339932 -0.0017596 -0.324155 -7.22739 -7.26653 -3.60461 -1.88099 -4.01062 
0.217417 -7.06874 0.276583 -2.20749 -4.6523 0.356169 -0.83272 -2.91031 0.145384 
-1.93446 -1.24032 0.0810029 0.919917 -0.955422 -3.89323 0.699941 0.59467 -4.79975 
-0.0377738 -5.0823 -4.66618 0.512263 -2.90831 -3.60731 -9.91533 -2.50049 -4.37776 
-1.53045 -0.848862 -3.00659 -1.53816 -0.656942 -1.27278 0.118911 -0.0301416 -0.5906 
-6.22295 -3.69344 -4.00002 -0.562683 0.832447 0.674973 -0.360014 -0.0987893 -3.67126 
-1.32133 -2.42164 0.665098 -5.64259 -0.300729 -1.04091 -1.95886 0.879165 -2.18174 
-5.81672 -0.311873 -0.0892933 -0.0655496 -1.56948 -1.4272 -1.21681 -3.3089 -1.81958 
-0.503 -5.6206 -0.0912452 -0.21049 -9.29469 -10.5804 -3.06569 -1.45364 0.152933 
-1.69342 -0.639481 -0.674459 -0.965568 -2.70489 -5.87333 -4.4688 -1.85823 -0.568383 
-5.63227 -6.6709 -3.30676 -6.37712 -0.532143 -0.882507 -0.999078 -3.1786 -1.22805 
-2.79248 -0.528873 -1.68725 -1.31707 0.15317 -1.42942 -1.02683 -1.98609 -2.08854 
-0.973792 -0.566033 -0.849256 -2.40304 -3.89032 -3.0034 -0.914108 -0.1128 -0.65499 

hks 16 252 double
0.4674628295 0.46438584286 0.46119659549 0.45789225815 0.45447019398 0.45092798025 0.44726342663 0.44347458984 0.43955978468 
0.43551759159 0.43134686096 0.42704671452 0.42261654424 0.41805600926 0.41336503122 0.40854378871 0.49272312485 0.4867812973 
0.48083656517 0.47489226335 0.46895105244 0.46301493661 0.45708529049 0.45116289391 0.44524797337 0.43934024917 0.43343898691 
0.42754305252 0.42165096971 0.41576097909 0.40987109794 0.40397917993 0.54403767968 0.53797543163 0.53194444728 0.52593675019 
0.51994441629 0.51395965325 0.50797487096 0.50198274318 0.49597626079 0.48994877702 0.4838940453 0.47780625016 0.4716800316 
0.46551050334 0.45929326529 0.45302441033 0.60230909611 0.59564640291 0.58897673512 0.58229576444 0.57559908646 0.56888228921 
0.56214101476 0.55537101325 0.54856818929 0.54172864085 0.53484869093 0.52792491257 0.52095414768 0.51393352023 0.5068604445 
0.49973262862 0.39208906354 0.38798301163 0.38387305569 0.37976205453 0.37565299307 0.37154901735 0.36745347152 0.36336993642 
0.3593022689 0.35525464105 0.35123157837 0.34723799569 0.34327922975 0.33936106713 0.33548976617 0.33167207175 0.50112600911 
0.49585008369 0.49054422349 0.48522016942 0.47988965319 0.47456441604 0.46925623641 0.46397696434 0.4587385602 0.45355313501 
0.44843298987 0.44339065188 0.4384389039 0.43359080604 0.42885970662 0.4242592408 0.4677672034 0.46460962344 0.46137950761 
0.4580736673 0.45468932262 0.451224064 0.44767580755 0.44404274681 0.44032330313 0.43651607696 0.43261980191 0.4286333031 
0.42455546098 0.42038518153 0.41612137308 0.41176293 0.44855123578 0.44334260833 0.43810903429 0.43285425871 0.42758185699 
0.4222952359 0.41699763768 0.41169214676 0.40638169891 0.40106909275 0.39575700308 0.3904479962 0.3851445466 0.37984905511 
0.37456386795 0.36929129657 0.44926376152 0.44501371408 0.44070390929 0.43633993667 0.43192784393 0.42747414906 0.42298585116 
0.4184704398 0.4139359025 0.40939072976 0.40484391727 0.40030496454 0.39578386949 0.39129111805 0.38683766819 0.38243492759 
0.41696087619 0.4128934954 0.40874834453 0.40452865308 0.40023753659 0.39587798589 0.3914528647 0.38696491516 0.38241677083 
0.37781097643 0.37315001334 0.36843632983 0.36367237486 0.35886063423 0.35400366775 0.34910414634 0.53191665987 0.52790259984 
0.52371024901 0.5193403452 0.51479466835 0.51007596951 0.50518789069 0.50013487815 0.49492209171 0.48955531209 0.48404084845 
0.47838544739 0.47259620486 0.46668048176 0.46064582386 0.45449988646 0.50572333835 0.50373814996 0.50166637716 0.49951818352 
0.49730476615 0.49503833482 0.4927320859 0.49040016996 0.48805765188 0.485720462 0.48340533704 0.48112974955 0.47891182466 
0.47677024362 0.47472413366 0.4727929443 0.56494897034 0.55947863761 0.55399191188 0.5484843382 0.54295151321 0.53738910511 
0.53179287057 0.52615866972 0.52048247964 0.51476040725 0.50898870188 0.50316376765 0.49728217567 0.49134067568 0.48533620681 
0.47926590673 0.47096207237 0.46571802046 0.4604385376 0.45512671571 0.44978571295 0.44441871167 0.43902887732 0.43361931993 
0.42819305911 0.4227529937 0.41730187665 0.41184229591 0.40637666137 0.40090719807 0.39543594551 0.38996476287 0.42499306557 
0.42147964102 0.41794754139 0.41439059842 0.4108028267 0.40717844204 0.40351187348 0.3997977705 0.396031007 0.3922066837 
0.38832013024 0.3843669083 0.38034281641 0.37624389737 0.37206644835 0.36780703389 0.47314668898 0.4682774384 0.46330433113 
0.45823021963 0.45305856686 0.44779343073 0.44243944159 0.43700177424 0.43148611538 0.42589862786 0.42024591284 0.41453497096 
0.4087731634 0.40296817373 0.39712797093 0.39126077409 0.45786205589 0.45311248466 0.44830603367 0.44344362993 0.43852661593 
0.43355673082 0.42853608464 0.42346712743 0.41835261437 0.41319556887 0.40799924473 0.40276708895 0.39750270626 0.39220982634 
0.38689227438 0.38155394565 0.51055085433 0.50641169954 0.50221719832 0.49798094512 0.49371724272 0.48944105778 0.48516797563 
0.48091415419 0.47669627588 0.47253149688 0.46843739222 0.46443189587 0.46053323429 0.45675985257 0.45313033213 0.44966329944 
0.40140979533 0.39765167307 0.39388639085 0.39012277674 0.38636905764 0.38263283104 0.37892105429 0.3752400506 0.37159553078 
0.36799262919 0.36443595235 0.36092963814 0.35747742372 0.35408271976 0.35074868891 0.3474783261 0.54397586728 0.53594138482 
0.52791137785 0.51988594149 0.51186511218 0.50384892463 0.49583746093 0.48783089102 0.47982950468 0.47183373533 0.46384417643 
0.45586159143 0.44788691847 0.43992127111 0.43196593636 0.42402237113 0.44383894134 0.43860738443 0.43336181747 0.4281099113 
0.42285885656 0.41761534211 0.41238554373 0.40717512255 0.40198923255 0.39683253662 0.39170923024 0.38662307226 0.38157742185 
0.37657528093 0.371619341 0.36671203377 0.46581738977 0.45993866893 0.45405370816 0.44816270119 0.44226628266 0.43636555447 
0.43046209711 0.42455796675 0.41865567939 0.41275818385 0.40686882565 0.40099130414 0.39512962506 0.38928805092 0.38347105144 
0.3776832558 0.50423340917 0.49736881449 0.49065008097 0.4840699913 0.47762064707 0.47129362612 0.46508012815 0.4589711061 
0.45295738201 0.44702974669 0.44117904333 0.4353962358 0.429672463 0.42399908079 0.41836769342 0.41277017658 0.52129977055 
0.51580188431 0.51031443906 0.50483374148 0.49935567149 0.49387573617 0.48838912372 0.48289075746 0.47737534962 0.47183745531 
0.46627152674 0.46067196797 0.45503319062 0.44934967034 0.44361600451 0.43782697072 0.53050891886 0.52488928686 0.51929439322 
0.51371783944 0.50815324713 0.50259432528 0.49703493048 0.4914691201 0.48589119829 0.48029575505 0.47467769833 0.46903227954 
0.46335511238 0.45764218546 0.45188986857 0.4460949131 0.41701902886 0.4143931935 0.41177606669 0.40917472778 0.40659672217 
0.40405007042 0.4015432739 0.39908531571 0.3966856559 0.39435421974 0.39210137805 0.38993791872 0.3878750087 0.38592414612 