# vtk DataFile Version 5.1
vtk output
ASCII
DATASET POLYDATA
POINTS 252 float
0.710143 -0.174921 -0.177343 0.599559 -0.269093 -0.083745 0.781748 -0.044966 -0.255309 
0.703732 -0.147821 -0.147532 0.780449 -0.066073 -0.263913 0.726842 -0.083783 -0.216992 
0.740967 -0.077666 -0.265269 0.648281 -0.205568 -0.083652 0.594163 -0.222889 -0.062705 
0.662194 -0.168315 -0.175526 0.552076 -0.228825 -0.072896 0.548878 -0.292046 -0.019357 
0.620048 -0.2608 -0.053537 0.587458 -0.240472 -0.093898 0.465582 -0.292286 -0.084181 
0.574255 -0.207162 0.07287 0.599985 -0.134683 -0.020116 0.609279 -0.118769 0.071498 
0.398141 -0.323509 0.045146 0.576312 -0.107119 -0.12976 0.603977 -0.029949 0.110087 
0.595373 -0.096893 0.135745 0.504271 -0.271369 0.072068 0.541288 -0.212027 -0.131907 
0.549825 -0.077044 -0.197408 0.425099 -0.221151 -0.157254 0.344506 -0.317285 -0.073226 
0.59098 -0.066467 0.013442 0.445112 -0.180636 0.165353 0.555513 -0.01911 -0.085314 
0.534575 -0.000586 -0.1997 0.252302 -0.332088 0.075166 0.559268 -0.012214 0.015352 
0.381652 -0.287441 0.107433 0.418414 -0.159487 -0.192709 0.514599 -0.096143 0.164832 
0.568426 0.110131 0.148867 0.490014 -0.006327 -0.020657 0.23623 -0.33818 -0.008159 
0.509803 0.092264 0.168333 0.214076 -0.295164 -0.073216 0.409749 -0.073693 0.17685 
0.4266 0.101889 -0.211023 0.582228 0.082826 0.076106 0.486088 0.00245 -0.071345 
0.277955 -0.274119 0.132976 0.302702 -0.201578 0.171359 0.133462 -0.343203 0.103976 
0.376149 -0.049653 0.154437 0.115524 -0.286009 0.173539 0.298401 -0.106199 0.133233 
0.551189 0.08664 0.061256 0.360755 -0.008979 0.095335 0.468084 0.029086 0.042368 
0.315856 -0.077295 0.07271 0.325311 -0.112027 -0.163925 0.247062 -0.224655 -0.133044 
0.363525 -0.020712 -0.080158 0.297038 -0.075467 -0.109049 0.417693 -0.003899 -0.023053 
0.394089 -0.018497 0.036745 0.292469 -0.072466 -0.043782 -0.017608 -0.272515 -0.073326 
0.546342 0.196334 0.110687 0.067125 -0.341594 -0.002768 0.211253 -0.109739 -0.083164 
0.360211 -0.004645 -0.1986 0.477085 0.123275 -0.177114 0.426634 0.135746 0.102781 
0.490991 0.116118 -0.1334 0.43827 0.107937 -0.115071 0.446335 0.132326 0.168327 
0.558167 0.266431 0.142468 0.138716 -0.18157 -0.102853 0.383954 0.197029 -0.17057 
0.580606 0.420205 0.17561 0.316942 0.0273 -0.126847 0.191568 -0.195379 0.174735 
0.356749 0.181124 -0.19945 0.517856 0.278065 0.174742 0.228175 -0.056337 0.028987 
-0.003706 -0.323218 0.125381 0.100266 -0.189639 0.208284 0.047526 -0.232943 -0.10227 
-0.128819 -0.305615 0.014371 0.527183 0.329727 0.12013 0.348851 0.208498 -0.138222 
0.422377 0.167228 0.150833 0.212691 -0.075774 0.108884 0.471461 0.299615 0.124255 
0.484809 0.316609 0.167621 0.339672 0.090286 -0.125875 0.033416 -0.238836 0.210437 
0.090723 -0.095123 0.206616 0.302755 0.115252 -0.185448 0.568227 0.418299 0.14991 
0.274052 0.153406 -0.136293 0.527818 0.420443 0.187602 0.140634 -0.004813 0.066568 
0.289132 0.227436 -0.183858 0.133566 -0.060676 -0.067477 -0.060223 -0.313024 -0.014684 
-0.101721 -0.196456 -0.112847 0.522384 0.434836 0.15506 0.203947 0.259047 -0.16101 
0.557024 0.530292 0.213271 0.570265 0.55885 0.155624 0.103371 0.013848 0.003769 
-0.206391 -0.199728 -0.104848 0.516478 0.556025 0.153288 0.491588 0.563421 0.188162 
0.097401 0.004852 0.126921 0.062623 0.016228 -0.063432 -0.10922 -0.098836 0.196134 
0.00766 -0.141073 -0.132038 -0.205892 -0.177547 0.174331 0.58738 0.601814 0.202868 
0.493984 0.600597 0.23449 0.248203 0.304853 -0.127776 -0.311469 -0.264084 0.097385 
-0.156961 -0.283873 0.121954 0.149559 0.31808 -0.125558 0.055635 0.08258 0.018437 
0.035249 0.000626 0.171092 0.509617 0.628803 0.15063 -0.006852 -0.041273 -0.131931 
0.244954 0.294721 -0.179814 -0.042732 0.105448 -0.08169 -0.088747 0.005481 -0.189008 
-0.296881 -0.280679 -0.013275 -0.094734 -0.064326 -0.144644 0.044196 0.067848 0.087058 
-0.227735 -0.077102 0.195099 -0.417909 -0.308009 -0.005252 -0.174715 0.005845 0.216875 
0.075767 0.316977 -0.136343 -0.225722 -0.000152 -0.175644 -0.062502 0.071752 0.172202 
-0.042584 0.083553 -0.125612 -0.208635 -0.114556 -0.148969 -0.053654 0.113107 0.141399 
-0.171315 0.071243 -0.196802 0.142404 0.350879 -0.117792 0.124926 0.376379 -0.139717 
-0.067421 0.197183 -0.115791 -0.458858 -0.295752 0.076548 -0.492625 -0.244522 -0.068158 
-0.328853 -0.221088 -0.066735 -0.088197 0.136305 -0.174938 -0.086606 0.130616 -0.075654 
-0.044273 0.137567 0.037391 -0.313204 -0.148947 -0.09876 -0.108826 0.182958 0.175773 
-0.290759 -0.037943 -0.13173 -0.163485 0.159467 0.000721 -0.123802 0.179765 0.079751 
-0.104258 0.066611 0.212358 -0.357377 -0.179447 0.119732 -0.178828 0.160876 0.076005 
0.099043 0.341691 -0.161698 -0.374886 -0.061517 -0.042297 -0.462847 -0.215531 0.117904 
-0.067606 0.186882 0.127624 -0.53918 -0.284512 -0.01284 -0.142588 0.245264 -0.155914 
-0.423689 -0.177783 -0.076434 -0.370526 -0.099824 0.103074 -0.033271 0.299211 -0.138024 
-0.225157 0.075893 -0.156565 -0.135578 0.252515 -0.096924 -0.196868 0.127923 -0.096407 
-0.250675 0.106078 0.151375 -0.295272 0.011229 0.168137 -0.250927 0.136196 0.042273 
-0.20197 0.135748 0.198258 -0.32957 -0.001831 -0.05486 -0.015519 0.341504 -0.071886 
-0.17083 0.178752 -0.099472 0.011512 0.397202 -0.144024 -0.327061 0.026262 0.074946 
-0.380598 -0.051949 0.056014 -0.455366 -0.087384 0.060532 -0.170817 0.170283 -0.177035 
0.025119 0.406928 -0.090292 -0.206457 0.178814 -0.141288 -0.287663 0.109085 -0.013624 
-0.219472 0.207982 0.115583 -0.495935 -0.123676 -0.080222 -0.554849 -0.103004 0.088959 
-0.444653 -0.139452 0.103114 -0.445629 -0.074512 -0.022188 -0.220892 0.218473 -0.193249 
-0.645794 -0.251615 0.01402 -0.639475 -0.156011 -0.118034 -0.185555 0.218841 0.154111 
-0.614301 -0.226041 -0.087049 -0.115257 0.293726 0.090691 -0.240328 0.242971 0.071027 
-0.615173 -0.214241 0.089853 -0.15039 0.276697 0.139701 -0.277536 0.31989 -0.08927 
-0.245397 0.231817 -0.113252 -0.549952 -0.185144 0.104434 -0.227025 0.254429 -0.18552 
-0.541828 -0.016593 0.06084 -0.365039 0.299625 -0.158608 -0.248118 0.316522 -0.140152 
-0.305208 0.365748 0.051425 -0.510542 -0.042009 -0.036321 -0.701494 -0.211735 -0.096359 
-0.37697 0.318406 0.083221 -0.510936 0.041913 -0.077404 -0.348633 0.277897 -0.146823 
-0.544257 -0.050882 -0.101386 -0.516788 0.05574 0.009437 -0.613478 0.052526 0.018693 
-0.263545 0.273949 0.141602 -0.616613 -0.003181 0.059076 -0.734346 -0.184082 0.068979 
-0.669344 -0.129879 0.103665 -0.284697 0.358275 0.103057 -0.746771 -0.158015 -0.08594 
-0.42675 0.366513 0.078778 -0.358736 0.294932 -0.115263 -0.619101 0.058594 -0.084663 
-0.502268 0.133645 -0.041926 -0.544584 0.152469 -0.001414 -0.734809 -0.035884 0.015477 
-0.40851 0.349052 0.04613 -0.413459 0.348135 -0.085217 -0.722173 -0.047208 -0.091015 
-0.403781 0.374988 -0.123033 -0.677791 -0.028391 -0.116394 -0.426987 0.300742 -0.106224 
-0.658074 0.058372 -0.068437 -0.704804 0.005828 0.045979 -0.660966 0.070316 -0.014323 
-0.45999 0.29957 -0.125833 -0.564069 0.17055 -0.087735 -0.534793 0.255722 -0.023539 
-0.460243 0.36602 -0.094406 -0.480988 0.32451 0.045859 -0.525042 0.206449 -0.060549 
-0.405742 0.405553 0.068404 -0.568169 0.30698 -0.09768 -0.524542 0.331402 -0.048395 
-0.575489 0.310835 0.061455 -0.565001 0.277733 0.027018 -0.546615 0.346701 -0.023831 
-0.384899 0.394703 0.039495 -0.556134 0.388677 0.035018 -0.569001 0.387225 -0.008156 

POLYGONS 501 1500
OFFSETS vtktypeint64
0 3 6 9 12 15 18 21 24 
27 30 33 36 39 42 45 48 51 
54 57 60 63 66 69 72 75 78 
81 84 87 90 93 96 99 102 105 
108 111 114 117 120 123 126 129 132 
135 138 141 144 147 150 153 156 159 
162 165 168 171 174 177 180 183 186 
189 192 195 198 201 204 207 210 213 
216 219 222 225 228 231 234 237 240 
243 246 249 252 255 258 261 264 267 
270 273 276 279 282 285 288 291 294 
297 300 303 306 309 312 315 318 321 
324 327 330 333 336 339 342 345 348 
351 354 357 360 363 366 369 372 375 
378 381 384 387 390 393 396 399 402 
405 408 411 414 417 420 423 426 429 
432 435 438 441 444 447 450 453 456 
459 462 465 468 471 474 477 480 483 
486 489 492 495 498 501 504 507 510 
513 516 519 522 525 528 531 534 537 
540 543 546 549 552 555 558 561 564 
567 570 573 576 579 582 585 588 591 
594 597 600 603 606 609 612 615 618 
621 624 627 630 633 636 639 642 645 
648 651 654 657 660 663 666 669 672 
675 678 681 684 687 690 693 696 699 
702 705 708 711 714 717 720 723 726 
729 732 735 738 741 744 747 750 753 
756 759 762 765 768 771 774 777 780 
783 786 789 792 795 798 801 804 807 
810 813 816 819 822 825 828 831 834 
837 840 843 846 849 852 855 858 861 
864 867 870 873 876 879 882 885 888 
891 894 897 900 903 906 909 912 915 
918 921 924 927 930 933 936 939 942 
945 948 951 954 957 960 963 966 969 
972 975 978 981 984 987 990 993 996 
999 1002 1005 1008 1011 1014 1017 1020 1023 
1026 1029 1032 1035 1038 1041 1044 1047 1050 
1053 1056 1059 1062 1065 1068 1071 1074 1077 
1080 1083 1086 1089 1092 1095 1098 1101 1104 
1107 1110 1113 1116 1119 1122 1125 1128 1131 
1134 1137 1140 1143 1146 1149 1152 1155 1158 
1161 1164 1167 1170 1173 1176 1179 1182 1185 
1188 1191 1194 1197 1200 1203 1206 1209 1212 
1215 1218 1221 1224 1227 1230 1233 1236 1239 
1242 1245 1248 1251 1254 1257 1260 1263 1266 
1269 1272 1275 1278 1281 1284 1287 1290 1293 
1296 1299 1302 1305 1308 1311 1314 1317 1320 
1323 1326 1329 1332 1335 1338 1341 1344 1347 
1350 1353 1356 1359 1362 1365 1368 1371 1374 
1377 1380 1383 1386 1389 1392 1395 1398 1401 
1404 1407 1410 1413 1416 1419 1422 1425 1428 
1431 1434 1437 1440 1443 1446 1449 1452 1455 
1458 1461 1464 1467 1470 1473 1476 1479 1482 
1485 1488 1491 1494 1497 1500 
CONNECTIVITY vtktypeint64
120 92 115 156 140 152 174 152 194 
97 103 89 93 123 137 92 93 113 
92 113 115 116 106 124 109 124 106 
93 137 113 109 110 124 113 137 134 
137 156 134 115 113 132 113 134 132 
156 152 174 134 156 174 132 134 172 
134 174 172 172 174 171 116 75 106 
97 75 105 75 116 105 103 97 110 
97 105 110 103 110 109 105 117 110 
117 105 116 116 124 117 124 110 117 
3 2 5 209 221 193 203 191 205 
164 191 203 164 182 191 141 136 168 
141 168 182 148 141 182 128 141 148 
136 128 139 128 136 141 42 34 66 
30 24 42 42 24 34 6 0 9 
0 2 3 0 4 2 6 4 0 
4 6 5 2 4 5 249 248 251 
241 247 248 8 13 10 228 241 248 
249 228 248 243 251 250 243 249 251 
142 143 183 219 235 227 215 236 235 
217 215 235 218 219 227 219 217 235 
217 204 215 204 214 215 215 214 226 
214 225 226 192 198 218 208 214 204 
235 236 227 215 226 236 211 224 238 
213 232 224 203 205 231 200 206 231 
206 203 231 175 151 160 151 147 165 
144 164 169 169 164 206 208 187 213 
192 218 209 209 218 221 112 138 127 
129 133 147 149 150 127 127 138 144 
127 144 149 165 147 146 147 133 146 
121 142 183 135 121 176 176 121 183 
183 143 178 135 176 167 149 144 169 
154 149 170 149 169 177 149 177 170 
151 165 160 146 133 163 176 183 178 
177 169 201 154 170 185 170 168 185 
185 168 175 160 165 190 165 187 190 
200 169 206 201 169 200 208 190 187 
208 211 214 211 213 224 211 208 213 
191 212 205 201 223 212 184 201 212 
164 203 206 195 192 209 195 163 192 
193 195 209 187 195 193 187 146 195 
187 193 213 184 212 191 146 163 195 
187 165 146 168 170 184 191 182 184 
184 177 201 170 177 184 168 184 182 
178 167 176 159 167 178 153 151 175 
153 175 168 10 1 14 16 10 23 
16 23 19 13 1 10 12 0 7 
0 12 1 8 7 9 7 0 3 
231 244 240 231 237 244 230 227 234 
232 230 234 232 234 224 238 224 234 
242 244 237 231 205 237 205 212 237 
212 233 237 160 180 175 193 221 230 
193 230 232 213 193 232 233 223 229 
212 223 233 143 126 159 13 8 9 
9 1 13 9 0 1 7 5 9 
168 136 153 144 148 164 143 159 178 
135 167 159 139 108 151 139 151 153 
136 139 153 144 138 148 40 62 83 
104 96 121 118 143 142 10 14 23 
26 38 40 44 69 70 44 70 57 
76 57 91 61 57 58 58 57 76 
40 64 62 70 86 91 70 69 86 
57 70 91 61 58 80 80 58 65 
65 73 100 56 73 65 62 64 101 
76 91 96 100 112 107 100 125 112 
100 73 125 62 101 129 108 62 129 
101 84 129 91 86 118 96 91 121 
91 118 121 108 129 147 121 118 142 
138 128 148 159 104 135 135 104 121 
108 147 151 130 139 128 125 130 138 
138 130 128 112 125 138 118 126 143 
126 104 159 102 108 139 130 102 139 
114 102 130 125 114 130 99 104 126 
86 126 118 102 62 108 99 94 104 
94 96 104 86 99 126 74 99 86 
73 114 125 164 148 182 83 62 102 
114 83 102 73 83 114 76 96 94 
94 99 78 78 42 94 74 78 99 
73 40 83 66 76 94 42 66 94 
69 74 86 67 78 74 69 67 74 
56 40 73 56 65 55 58 55 65 
66 55 76 55 58 76 67 42 78 
67 30 42 69 30 67 26 40 56 
34 56 55 34 25 56 25 26 56 
69 29 30 25 14 26 23 25 34 
24 23 34 19 30 29 19 24 30 
23 14 25 19 23 24 5 6 9 
7 3 5 44 29 69 66 34 55 
181 208 204 181 190 208 192 145 198 
163 145 192 181 180 190 180 160 190 
175 180 179 175 179 185 154 185 173 
133 145 163 150 149 154 98 131 111 
119 115 157 157 172 166 197 186 210 
196 207 220 47 49 81 93 77 88 
49 92 81 88 111 93 81 92 120 
88 98 111 93 111 123 111 131 123 
123 131 137 137 131 140 120 115 119 
131 150 140 137 140 156 115 132 157 
162 155 196 140 162 152 157 132 172 
152 162 199 199 162 196 194 152 199 
158 171 186 171 174 186 174 194 186 
194 199 216 186 194 216 210 186 216 
199 196 220 216 199 220 216 220 222 
222 220 243 210 216 222 21 20 36 
21 35 28 21 36 35 41 35 39 
28 35 41 45 28 46 122 127 150 
133 119 145 133 129 119 84 119 129 
107 112 122 80 107 98 80 100 107 
101 64 84 84 64 81 54 61 80 
59 61 60 61 54 60 59 57 61 
38 47 64 38 64 40 38 31 47 
37 44 59 37 29 44 32 29 37 
38 26 18 122 112 127 80 65 100 
59 44 57 140 150 162 150 131 122 
84 120 119 131 107 122 131 98 107 
84 81 120 88 80 98 88 54 80 
47 81 64 53 60 52 53 32 60 
32 37 60 51 32 53 31 45 47 
51 43 32 43 27 32 18 22 33 
17 16 27 12 15 22 15 16 17 
246 250 251 247 246 251 60 37 59 
38 18 31 11 22 18 11 12 22 
27 29 32 27 16 29 16 19 29 
14 18 26 18 14 11 15 10 16 
1 11 14 15 12 10 12 8 10 
12 7 8 1 12 11 248 247 251 
245 240 244 236 226 238 234 236 238 
119 157 161 145 119 161 162 150 155 
155 150 158 158 150 154 172 179 166 
157 166 189 161 157 189 158 154 173 
155 158 186 171 158 173 179 173 185 
172 171 179 171 173 179 180 166 179 
189 166 181 166 180 181 202 161 189 
202 189 188 145 161 198 198 161 202 
155 186 197 155 197 196 188 189 181 
181 204 188 198 202 219 196 197 207 
197 210 228 204 217 188 219 188 217 
202 188 219 198 219 218 197 228 207 
220 207 249 243 220 249 239 245 244 
242 239 244 239 229 245 229 240 245 
230 221 227 234 227 236 226 225 238 
242 233 229 233 242 237 229 231 240 
221 218 227 214 211 225 225 211 238 
223 200 229 223 201 200 229 200 231 
106 103 109 75 95 106 82 93 92 
82 77 93 68 87 89 89 90 97 
87 90 89 85 89 103 95 85 103 
79 97 90 95 103 106 49 82 92 
49 77 82 87 79 90 87 71 79 
97 79 75 95 72 85 72 75 79 
75 72 95 71 87 48 41 71 48 
41 39 71 39 79 71 39 36 79 
79 36 72 46 41 48 35 36 39 
46 28 41 45 46 77 68 52 87 
52 48 87 63 68 89 63 89 85 
77 50 88 77 46 50 54 88 50 
52 54 50 54 52 60 50 48 52 
18 33 31 207 228 249 241 210 222 
228 210 241 222 243 250 246 241 222 
246 222 250 15 17 21 28 15 21 
22 15 28 20 27 43 21 17 20 
20 17 27 33 22 28 20 43 36 
33 28 45 31 33 45 43 51 63 
36 43 63 46 48 50 47 45 49 
49 45 77 51 68 63 51 53 68 
68 53 52 239 242 229 72 63 85 
36 63 72 241 246 247 
POINT_DATA 252
SCALARS k float
LOOKUP_TABLE default
0.264733 -0.209728 3.51528 0.0575519 0.997108 0.0676934 1.46999 -0.0116821 -0.0435836 
-0.148949 -2.9324 0.111987 -0.876583 -0.632582 -0.265679 -0.453024 0.0810877 0.133479 
0.104528 0.086289 0.0884079 0.439305 0.128124 0.334106 0.49197 0.0661469 0.146145 
-0.151166 0.123803 -0.546956 0.323306 -0.0378063 -0.933359 0.0662862 0.144842 0.0385141 
-0.0869007 -0.0405137 -0.00146079 -0.0124552 -0.118489 -0.0199125 0.103778 0.13817 -0.539946 
-0.0761686 -0.0840382 0.170119 -0.194619 0.0935479 -0.585138 -0.0110726 -0.425939 -0.107862 
-0.347894 -0.216125 -0.00103885 -0.564897 -0.989787 0.0540149 -0.523013 -0.118419 0.014972 
-0.435731 0.123624 -0.592263 -0.112549 0.268129 -0.132269 0.383333 -0.0556539 -0.00557494 
-0.382692 -0.328728 0.241228 0.135916 -0.778378 -0.302007 0.131002 -0.122387 -0.420288 
0.118124 0.070081 0.00711805 -0.0139304 0.0629584 -0.490375 0.0434665 -0.374382 0.12441 
-0.0584929 -0.145857 0.245895 0.200121 -0.105192 -0.0807987 -0.421615 -0.448496 -0.0337875 
-0.40846 -0.221108 -0.0202947 -0.0186912 -0.783863 -0.698965 -0.097383 0.262833 -0.177504 
0.0129496 -0.038273 -0.0704911 0.031329 -0.0743188 -0.0946676 0.0464901 0.00253558 1.8753 
2.42603 0.333953 -0.306059 -0.0351459 -0.633911 0.289882 -0.00277984 2.55457 -0.0215072 
0.427049 -0.666693 0.571335 -0.307968 -0.37213 -0.0848668 0.0491041 0.319631 -0.00450766 
-0.793149 0.110324 -0.438954 -0.440269 0.0390902 -0.286344 0.169265 -0.140627 0.218353 
0.617814 0.36533 -0.0171996 -0.102703 0.210406 -0.897656 -0.426653 -0.297835 0.131526 
0.126292 0.118116 -0.900513 0.469756 -0.233898 -0.935298 -0.146791 -0.50503 0.105663 
-0.317182 0.0777771 0.171045 -0.286059 -0.332126 2.94251 -0.315438 0.246242 -1.22562 
-0.451809 0.163936 0.12022 0.276292 -0.155589 1.75851 -0.465254 1.28773 -0.0344716 
-0.485891 -0.758219 -0.750222 1.42841 -1.4493 0.317994 -1.95887 -0.278504 -0.064261 
-0.111881 -0.927774 0.383547 0.102182 0.149326 -0.623179 -0.045828 1.16712 -0.0296128 
0.0150343 0.146062 0.149382 -0.163463 -0.0516825 0.155767 -0.399419 -0.00686574 0.182231 
0.0646245 -0.818526 0.789093 -0.722316 0.140028 -0.422178 -0.131291 -0.113793 -0.173211 
0.174151 0.0400228 1.13935 0.262922 0.127028 0.750535 -0.262782 -0.269837 -0.177983 
0.972097 1.26401 0.223727 -0.41685 -0.428824 0.259416 0.816419 0.35268 -1.00369 
-0.0735809 0.602251 -0.0299904 -0.547428 2.20787 1.47936 0.288767 -0.846869 2.7517 
0.511098 2.1073 0.778814 1.527 2.35493 0.887354 0.0783857 0.59792 1.86142 

FIELD FieldData 7
h 1 252 float
5.90089 0.231357 0.929512 1.38751 0.989328 0.741119 3.11823 0.638397 -3.57112 
-0.0144035 3.66667 6.30912 0.720294 -0.149113 4.26724 1.69607 5.50431 1.73872 
5.65059 3.21072 1.26258 1.85296 1.82451 4.04548 1.69765 1.95816 3.24283 
-0.573522 1.2795 0.428412 2.17661 4.86029 0.199477 2.05959 1.1257 1.26975 
1.51119 -2.27649 5.30942 0.688052 1.44401 0.90284 0.83875 -0.611755 -0.581463 
1.44628 0.0890832 5.94539 -0.117833 2.12409 -0.201621 0.337884 -2.31939 -0.67314 
-5.12815 0.351695 0.529703 -3.68979 -0.66522 -5.46037 -4.28475 -3.21595 1.80539 
0.490694 4.68315 0.270586 0.554025 3.48376 -1.81689 2.55112 -1.78793 0.495527 
1.61974 0.218973 0.340366 2.89744 -1.93067 0.111306 0.826754 0.431188 -4.6902 
4.59995 1.12812 0.917427 6.22729 2.52494 1.10979 4.00164 0.588599 -0.529436 
1.45992 -4.07734 1.48605 1.26946 -0.452003 6.76452 -3.12656 1.25773 -0.66456 
1.34132 0.575193 2.90739 0.917986 1.09212 -0.260401 2.17315 7.01368 -1.39149 
1.39451 3.34235 16.4018 1.52937 2.09998 1.20073 0.752074 1.52794 2.71922 
3.245 -0.354284 3.38576 3.22704 -8.62073 2.00661 1.84954 2.00451 1.44792 
0.825108 2.2647 1.93501 2.72252 1.15826 2.10707 1.26916 3.5405 1.71536 
-7.12081 1.31647 1.89209 3.2908 1.17047 2.87306 2.41183 0.383025 3.97029 
2.86514 4.37904 0.800598 0.675992 3.32385 1.55522 2.28618 0.534344 2.93694 
0.893283 2.09796 0.519353 2.72107 0.152845 1.5951 0.849122 0.228047 0.568599 
2.55196 4.65655 5.78501 0.805448 0.552869 -0.197182 1.22134 1.20301 2.19252 
0.817308 1.32813 2.04759 1.79797 0.598579 -1.69302 -4.00928 -0.6374 0.753692 
0.226002 0.62078 0.597903 -0.264414 0.226648 0.963977 0.436639 0.987037 1.31432 
0.891113 0.411605 -1.05674 8.05581 0.62786 0.44392 1.28479 1.06901 -3.96021 
2.02203 3.18418 1.45661 -7.25375 0.946653 5.93508 1.44247 0.87586 4.86369 
1.48241 -7.42955 2.88751 0.941604 -0.248085 0.342055 1.07487 -0.0116483 0.451112 
-0.420077 1.25397 4.46211 1.1446 4.39056 9.94936 -0.136687 -16.7914 -0.165061 
14.2065 -0.826366 5.53839 -5.30997 -6.59011 2.32702 3.41888 -0.0738871 1.14993 
11.2907 2.45612 2.02722 -0.933486 0.433694 -2.19787 2.24403 -2.78282 0.489511 
2.99318 -0.937344 -2.20458 -0.0160159 -0.207494 2.21228 -1.62882 0.316898 -0.910863 

kmin 1 252 float
10.3665 1.00799 2.41503 3.15128 2.72111 2.1379 6.43253 0.794745 -1.93154 
0.496529 6.24449 11.6297 2.79387 0.84962 7.43509 3.78194 8.60382 3.41119 
10.7294 5.94105 2.6285 2.71044 2.29977 4.64771 2.7363 3.22969 6.08161 
0.16018 1.88854 2.34216 3.04228 8.88033 1.70028 2.90998 2.04947 1.88943 
3.25459 1.60203 10.2461 1.63691 2.766 1.45208 1.08561 0.20498 -0.204305 
1.92937 1.2378 11.2986 2.51459 3.33312 0.559873 1.32808 -0.897042 0.195975 
-1.36951 1.25654 0.968607 -1.8811 2.5595 -1.18492 -3.39738 -2.05098 3.40079 
1.98271 8.96596 0.958497 1.25267 6.01759 0.0510314 4.22334 -0.651049 1.7872 
4.30786 0.435825 1.9197 5.81716 1.20614 1.08091 2.624 1.36502 -0.878658 
8.55208 1.59371 1.61485 12.3022 6.16368 2.37674 9.07971 0.863317 -0.15909 
4.11233 -1.51161 2.11606 1.60562 0.417096 14.1615 -2.04206 3.50627 -0.290894 
3.40191 1.67416 5.51539 1.70922 3.44897 0.257683 4.77414 14.9347 -0.578314 
2.62366 7.71668 34.3066 3.10482 5.0349 1.72788 1.23063 2.38353 5.69102 
7.80231 0.573434 6.33686 5.82332 -1.11879 4.66707 3.26278 4.85398 2.94582 
1.77824 4.75367 3.66571 5.36138 2.38565 4.73326 1.69223 7.2299 2.67086 
-0.0370749 2.02998 3.30964 6.73229 2.08006 6.11595 3.49776 1.67355 8.89723 
4.84786 8.06293 2.12425 1.60144 6.32701 3.47517 4.45213 1.16808 4.88698 
1.74933 2.92815 1.29806 4.81081 0.587014 3.18256 1.91427 1.5406 1.04736 
4.32212 9.10838 10.7555 1.8412 1.24933 0.105642 2.46939 1.79194 3.22356 
1.30055 1.71819 3.17107 2.36415 2.76376 -0.836272 -1.4723 -0.450104 3.01325 
1.70198 1.22984 1.72042 0.285746 0.914787 1.65716 1.31511 2.41594 2.95144 
1.49606 2.50815 0.502376 16.055 2.4383 0.833828 3.2483 2.73634 -1.58756 
3.91122 5.3226 2.88196 -2.69365 2.42422 11.0484 2.95322 2.77187 8.9255 
3.6832 -1.64244 5.40327 1.74358 2.00121 1.42984 2.93627 0.632292 2.62093 
0.702461 3.53614 7.9236 3.28875 8.83099 11.4771 0.995639 -0.91034 1.21338 
32.0356 -0.354361 7.59204 -2.23212 1.12557 4.59515 6.89396 1.24403 8.90649 
20.2029 4.64059 3.24445 0.0363614 1.9094 -0.298779 4.64522 -1.25861 2.3246 
5.6292 -0.652131 -1.16268 0.772798 1.29286 6.08804 -0.156636 1.13035 -0.158288 

kmax 1 252 float
1.43527 -0.545278 -0.55601 -0.376261 -0.742455 -0.655667 -0.196074 0.482049 -5.21069 
-0.525336 1.08885 0.988545 -1.35328 -1.14785 1.09939 -0.389795 2.4048 0.0662429 
0.57181 0.480396 -0.103332 0.99548 1.34924 3.44324 0.659001 0.686623 0.40404 
-1.30722 0.670457 -1.48533 1.31094 0.840249 -1.30133 1.20921 0.201935 0.650069 
-0.232206 -6.15501 0.372772 -0.260807 0.122026 0.353597 0.59189 -1.42849 -0.958621 
0.963194 -1.05963 0.592211 -2.75025 0.915065 -0.963115 -0.652311 -3.74174 -1.54225 
-8.88679 -0.553153 0.0907982 -5.49848 -3.88994 -9.73581 -5.17212 -4.38092 0.209997 
-1.00132 0.400333 -0.417324 -0.144625 0.949921 -3.68482 0.8789 -2.9248 -0.79614 
-1.06838 0.00212143 -1.23897 -0.0222903 -5.06749 -0.858295 -0.970487 -0.502647 -8.50173 
0.647813 0.662531 0.219999 0.152413 -1.1138 -0.157154 -1.07644 0.313881 -0.899781 
-1.19248 -6.64307 0.856042 0.933298 -1.3211 -0.632453 -4.21106 -0.990809 -1.03823 
-0.719273 -0.523777 0.299397 0.126754 -1.26473 -0.778485 -0.427847 -0.907331 -2.20466 
0.165355 -1.03197 -1.50301 -0.0460837 -0.834935 0.673578 0.273518 0.672345 -0.25257 
-1.31232 -1.282 0.434657 0.63077 -16.1227 -0.653857 0.43629 -0.844956 -0.0499674 
-0.128021 -0.224283 0.204303 0.0836489 -0.0691384 -0.519114 0.846084 -0.148892 0.75987 
-14.2045 0.602962 0.474538 -0.150681 0.260886 -0.369825 1.3259 -0.907496 -0.956656 
0.882429 0.695144 -0.523056 -0.249452 0.320692 -0.364729 0.12023 -0.0993932 0.986905 
0.0372346 1.26777 -0.25935 0.631324 -0.281324 0.00764593 -0.216025 -1.08451 0.0898337 
0.781803 0.204727 0.814487 -0.230309 -0.143596 -0.500006 -0.0267146 0.614074 1.16148 
0.334066 0.938068 0.924105 1.23179 -1.5666 -2.54976 -6.54625 -0.824697 -1.50586 
-1.24998 0.0117171 -0.52461 -0.814573 -0.461491 0.270795 -0.441831 -0.441868 -0.322795 
0.286169 -1.68494 -2.61586 0.0565693 -1.18258 0.0540131 -0.678714 -0.598325 -6.33287 
0.132836 1.04576 0.0312631 -11.8138 -0.530917 0.821739 -0.0682921 -1.02015 0.801884 
-0.718387 -13.2167 0.371751 0.139629 -2.49738 -0.745726 -0.786538 -0.655588 -1.71871 
-1.54262 -1.02821 1.00062 -0.999548 -0.0498819 8.42166 -1.26901 -32.6724 -1.5435 
-3.62257 -1.29837 3.48475 -8.38782 -14.3058 0.0588849 -0.0561941 -1.3918 -6.60663 
2.37853 0.271636 0.809984 -1.90333 -1.04201 -4.09695 -0.157161 -4.30702 -1.34557 
0.357167 -1.22256 -3.24648 -0.80483 -1.70785 -1.66349 -3.101 -0.496556 -1.66344 

hks 16 252 double
1.1041037424 1.1110247842 1.1170135073 1.1220494918 1.1261152096 1.1291960102 1.131280119 1.132358649 1.1324256255 
1.1314780237 1.1295158132 1.1265420096 1.1225627248 1.1175872142 1.1116279147 1.1047004689 0.57019261276 0.57709849036 
0.58369953939 0.58997056019 0.59588717894 0.60142595116 0.60656446765 0.61128146375 0.61555693251 0.61937224129 0.62271025125 
0.62555543826 0.62789401366 0.62971404271 0.63100555851 0.63176066909 1.3621935973 1.366625763 1.3699467979 1.3721380009 
1.3731842714 1.3730740838 1.3717994729 1.3693560314 1.36574292 1.3609628864 1.355022291 1.3479311342 1.3397030791 
1.3303554669 1.3199093166 1.3083893073 1.3037683612 1.3089038554 1.31295865 1.3159140692 1.3177548737 1.3184692343 
1.3180487173 1.3164882834 1.3137862998 1.3099445628 1.3049683283 1.2988663439 1.29165088 1.2833377519 1.2739463301 
1.2634995328 1.3390962057 1.3438437112 1.3474883203 1.3500116562 1.3513988602 1.3516385635 1.3507228715 1.3486473617 
1.3454110942 1.3410166332 1.3354700751 1.3287810792 1.320962895 1.3120323815 1.3020100132 1.2909198674 1.3097915858 
1.3149053461 1.3189288869 1.3218440962 1.3236362874 1.3242941692 1.3238098287 1.3221787298 1.3193997245 1.3154750763 
1.3104104912 1.304215151 1.2969017458 1.2884864973 1.2789891707 1.268433068 1.289523608 1.294895482 1.2991868612 
1.3023796855 1.3044592621 1.3054142339 1.3052365626 1.3039215257 1.3014677285 1.2978771285 1.2931550671 1.287310306 
1.2803550607 1.2723050281 1.2631794012 1.2530008667 1.0271105031 1.0345320704 1.0410879888 1.046756941 1.051520304 
1.0553621439 1.0582692205 1.060231006 1.0612397152 1.0612903476 1.0603807383 1.0585116135 1.0556866483 1.0519125202 
1.0471989557 1.0415587647 0.69412958533 0.7018039479 0.70899199496 0.71566864416 0.72181041519 0.72739548868 0.73240376812 
0.73681694644 0.74061857842 0.74379415889 0.74633120587 0.74821934714 0.74945040796 0.75001849751 0.74992009096 0.74915410449 
1.0009597425 1.0085487931 1.0152988779 1.0211877073 1.0261956799 1.0303058796 1.0335040818 1.0357787697 1.0371211632 
1.0375252573 1.0369878695 1.035508692 1.0330903459 1.0297384322 1.0254615764 1.0202714621 0.36899365745 0.37324563918 
0.37742966766 0.38152956846 0.38552912807 0.38941218316 0.39316271376 0.39676494057 0.40020342628 0.40346318051 0.40652976779 
0.40938941772 0.41202913618 0.41443681629 0.4166013478 0.41851272343 0.40623580546 0.40772691267 0.40928050074 0.41088122271 
0.4125127266 0.41415779998 0.41579852439 0.41741643779 0.41899270346 0.42050828354 0.42194411557 0.4232812902 0.42450122847 
0.42558585686 0.4265177783 0.42728043754 0.52551527067 0.53207024345 0.53836249727 0.54436983653 0.55007059262 0.55544371422 
0.56046886502 0.56512652927 0.56939812521 0.57326612563 0.57671418421 0.57972726601 0.58229177973 0.58439570932 0.58602874226 
0.58718239187 0.64246337934 0.64982882226 0.65678554539 0.66330750721 0.66937007545 0.67495010521 0.68002601706 0.68457787696 
0.68858747913 0.69203843226 0.69491624869 0.69720843547 0.69890458564 0.69999646766 0.70047811066 0.70034588287 0.32993065421 
0.32966442586 0.32947316994 0.32935155331 0.32929329676 0.32929123752 0.32933740262 0.32942309232 0.32953897221 0.32967517272 
0.32982139504 0.32996702192 0.33010123229 0.33021311844 0.33029180438 0.33032656433 0.30950706799 0.30780668975 0.30625344851 
0.30484463937 0.30357682195 0.30244588687 0.30144712312 0.30057528545 0.29982466125 0.2991891363 0.2986622596 0.29823730728 
0.29790734593 0.29766529574 0.2975039941 0.29741625986 0.26509330563 0.26267545494 0.2603337226 0.25807480095 0.25590517673 
0.25383109859 0.25185854452 0.24999318943 0.24824037328 0.24660507032 0.24509186019 0.2437049017 0.24244791045 0.24132414131 
0.24033637682 0.23948692272 0.30613943707 0.30201834067 0.2979432846 0.29393410491 0.29001012943 0.28619002584 0.28249166165 
0.27893197689 0.27552686996 0.27229109743 0.2692381884 0.26638037402 0.26372853305 0.26129215398 0.25907931461 0.25709667939 
0.35987559342 0.35651375606 0.35312069799 0.34970302612 0.34626751116 0.34282098864 0.33937025947 0.33592199208 0.33248262826 
0.32905829444 0.32565472014 0.32227716494 0.31893035521 0.31561843145 0.31234490712 0.30911263929 0.34067881963 0.33655127953 
0.33245300954 0.32839547482 0.32438982564 0.32044686825 0.31657704535 0.31279042497 0.30909669677 0.30550517478 0.30202480537 
0.29866417955 0.29543154863 0.29233484219 0.28938168767 0.28657943054 0.33865978502 0.33418358163 0.32981750068 0.3255772958 
0.3214782982 0.31753532315 0.31376257794 0.31017357204 0.30678103041 0.30359681136 0.30063183055 0.29789599272 0.29539813327 
0.29314597105 0.29114607434 0.28940384097 0.33828444617 0.33465599595 0.33105616486 0.32749919129 0.32399947459 0.32057146368 
0.31722954153 0.31398790715 0.31086045657 0.30786066499 0.3050014722 0.30229517352 0.29975331862 0.29738662039 0.29520487599 
0.29321690177 0.35197789152 0.35039131066 0.34891606707 0.34754735487 0.34627965188 0.34510674942 0.34402178817 0.34301730134 
0.34208526577 0.34121716198 0.3404040432 0.33963661345 0.33890531422 0.33820041879 0.33751213296 0.33683070058 0.296115002 
0.29449723683 0.2928907599 0.29129962105 0.28972768231 0.28817859539 0.28665578571 0.28516244319 0.28370151986 0.28227573435 
0.28088758287 0.27953935644 0.27823316392 0.27697095992 0.27575457726 0.27458576266 0.45210646207 0.44581027918 0.4395649076 
0.43337616713 0.42724990739 0.42119211619 0.41520901986 0.40930717191 0.40349352697 0.39777549784 0.39216099406 0.38665844142 
0.3812767823 0.37602545748 0.37091437068 0.36595383719 0.34988450322 0.34429925556 0.33882347038 0.33345715098 0.32820041167 
0.32305351697 0.31801690568 0.31309120062 0.3082772057 0.30357589218 0.29898837625 0.29451589017 0.29015974916 0.28592131621 