# vtk DataFile Version 5.1
vtk output
ASCII
DATASET POLYDATA
POINTS 252 float
0.64366 0.367003 -0.016469 0.678184 0.311502 -0.025767 0.656898 0.365727 -0.11606 
0.681384 0.390209 -0.07889 0.669172 0.301276 -0.075372 0.588272 0.234388 -0.051815 
0.561363 0.311041 0.018908 0.519568 0.243054 -0.003717 0.572289 0.331438 -0.130327 
0.555136 0.363488 -0.043418 0.548167 0.378261 -0.100956 0.519781 0.196508 -0.067664 
0.504375 0.329554 -0.189864 0.519642 0.294887 -0.18043 0.476884 0.399188 -0.068159 
0.481004 0.22082 0.021178 0.450546 0.101996 0.051738 0.47661 0.398756 -0.126167 
0.420421 0.273165 0.03736 0.440003 0.165677 -0.077981 0.453488 0.116349 0.014834 
0.451591 0.177067 0.076873 0.417287 0.027054 0.110071 0.420376 0.230644 -0.191189 
0.424092 -0.112838 -0.012639 0.37986 0.375816 -0.050992 0.428934 -0.04494 0.03003 
0.376458 0.068324 -0.027101 0.412172 0.308895 -0.221672 0.368712 -0.229057 -0.024323 
0.386375 0.198589 0.097792 0.406731 -0.130522 0.101534 0.375041 0.403169 -0.134171 
0.480873 0.305476 0.028519 0.368371 0.108193 0.132838 0.407102 -0.123076 -0.060825 
0.399488 -0.013826 -0.047928 0.384125 -0.180385 0.117168 0.375119 0.302638 -0.210241 
0.354195 0.139444 -0.08361 0.370407 -0.082002 0.164052 0.343497 -0.006496 -0.088799 
0.39461 -0.620401 0.407224 0.321407 0.329279 -0.048336 0.328593 0.016483 0.18314 
0.380126 0.257966 -0.211528 0.335449 0.378951 -0.124029 0.325707 -0.628128 0.337437 
0.331296 -0.584062 0.429782 0.334078 0.280963 0.013994 0.303529 0.200446 -0.094801 
0.310442 -0.652149 0.413163 0.32645 -0.259871 -0.10282 0.273876 0.162517 -0.047348 
0.312041 -0.104251 0.217785 0.293768 -0.51343 0.352999 0.303487 0.275837 -0.108814 
0.295094 0.240389 0.020318 0.284362 0.242158 -0.040047 0.325739 0.213307 0.082162 
0.317109 -0.551676 0.329533 0.315496 -0.148037 -0.126199 0.234296 0.073982 -0.057052 
0.296629 -0.472725 0.314722 0.223187 -0.175994 0.238374 0.271183 -0.553454 0.346488 
0.274953 -0.530915 0.286023 0.283395 -0.025662 -0.113981 0.261604 -0.350457 0.233454 
0.281342 -0.1935 0.202675 0.270812 -0.293398 -0.044103 0.256028 -0.287306 0.242983 
0.240583 0.11956 -0.024524 0.262071 0.106876 0.134811 0.314221 -0.249942 0.076038 
0.280139 -0.188983 -0.127423 0.22187 -0.448597 0.275117 0.252328 -0.398153 0.312147 
0.247404 -0.268704 0.179937 0.234048 -0.261318 0.248975 0.214593 0.1327 0.075413 
0.211277 -0.343852 0.280588 0.227827 -0.155065 -0.116478 0.209978 -0.379703 0.1983 
0.208697 -0.278135 -0.088712 0.240508 -0.299047 -0.117312 0.238698 -0.267565 0.038704 
0.198207 -0.271179 0.236282 0.239637 -0.258553 -0.157516 0.200548 -0.081394 0.206616 
0.189321 -0.287165 0.134436 0.199926 0.126981 0.012505 0.204542 -0.223933 -0.176024 
0.203043 -0.250644 0.10491 0.16328 -0.249335 0.013489 0.154149 -0.157379 0.202775 
0.185963 -0.214659 -0.103609 0.168329 -0.328086 -0.208104 0.168438 -0.034172 -0.161642 
0.172318 -0.191146 -0.1514 0.155654 -0.047137 0.156912 0.187349 0.067703 -0.133637 
0.235003 0.019477 0.176712 0.163479 -0.295175 0.191816 0.141272 -0.226195 0.108433 
0.099803 0.153912 0.028169 0.180491 -0.191504 -0.094847 0.09819 0.091917 -0.169058 
0.153196 0.083282 0.103954 0.123236 -0.191549 0.150972 0.15759 0.124664 -0.092521 
0.126072 -0.232816 -0.188849 0.136331 -0.223681 -0.051096 0.139038 -0.303449 -0.156743 
0.124738 -0.132346 -0.143062 0.058547 -0.322658 -0.231469 0.074412 -0.099911 0.140178 
0.070271 0.160355 -0.095063 0.04399 -0.365149 -0.301091 0.058863 -0.212174 0.015734 
0.080039 0.02484 0.139178 0.08736 -0.35512 -0.233411 0.015773 0.007031 0.106923 
0.078341 -0.29761 -0.272441 0.044394 -0.030311 -0.18234 0.028204 -0.126857 -0.147328 
-0.016066 -0.101092 0.068696 -0.023256 -0.406389 -0.302669 0.017172 0.053676 -0.175929 
0.035526 0.109846 0.077156 0.035822 -0.141332 0.082455 -0.087972 0.131054 -0.118528 
-0.023694 -0.348743 -0.296159 -0.034761 -0.137103 -0.020871 -0.015281 -0.401924 -0.35729 
-0.099036 -0.390091 -0.358178 -0.014169 -0.420892 -0.323028 -0.078386 -0.064912 0.041877 
-0.044661 -0.06472 -0.147885 -0.027881 0.164517 0.033485 -0.070801 -0.443469 -0.399747 
-0.072836 -0.488027 -0.378505 -0.030771 -0.363035 -0.343701 -0.074703 0.014233 0.103246 
-0.010178 -0.147941 -0.08659 -0.097099 -0.456108 -0.329173 -0.081165 0.185708 -0.055689 
-0.086712 0.075395 -0.136306 -0.080785 0.054802 0.119604 -0.13113 -0.040893 -0.087137 
-0.148809 0.159867 0.097498 -0.197474 0.064042 -0.150594 -0.179691 -0.026217 0.120941 
-0.154093 0.198212 -0.004946 -0.186166 0.128468 -0.137852 -0.191663 -0.06893 0.068751 
-0.158296 -0.067221 -0.043542 -0.279493 0.12622 -0.145909 -0.197879 0.195207 -0.056163 
-0.203862 -0.001533 -0.128594 -0.221165 0.064696 0.150462 -0.276146 -0.069784 -0.009953 
-0.20492 -0.04673 0.020901 -0.279811 0.034026 -0.197984 -0.316622 0.133061 0.137217 
-0.270524 0.505635 0.106224 -0.31765 0.21582 0.034774 -0.308101 0.213093 0.057245 
-0.314644 -0.01655 -0.197591 -0.282934 0.514317 0.123097 -0.289954 -0.055329 0.190435 
-0.282406 0.44143 0.119361 -0.339746 -0.093421 0.173373 -0.36255 -0.085285 0.109568 
-0.401997 0.003257 0.231945 -0.3601 0.334662 0.111817 -0.305888 0.459479 0.128409 
-0.269057 -0.093874 0.135276 -0.343122 0.267946 0.08763 -0.350817 0.170613 0.090236 
-0.371259 -0.048304 0.019259 -0.341203 0.332769 0.062511 -0.256004 0.013382 0.153083 
-0.292553 -0.076089 -0.046743 -0.351538 0.064207 -0.20139 -0.358688 0.36643 0.0773 
-0.299921 -0.050871 -0.09306 -0.320987 0.203361 -0.042459 -0.388787 0.17056 -0.044848 
-0.395596 -0.018714 -0.037429 -0.387582 0.26698 0.068966 -0.389518 -0.039096 -0.134625 
-0.381582 0.117191 -0.107113 -0.382477 0.119835 0.112044 -0.435518 0.105343 -0.031215 
-0.381851 0.196187 0.035911 -0.404341 -0.006607 -0.242848 -0.431213 -0.053431 0.211055 
-0.46869 -0.104164 -0.34492 -0.439063 0.080377 0.051917 -0.411237 0.086683 0.189308 
-0.46791 0.112026 0.22863 -0.430114 0.017001 0.056043 -0.445666 0.016716 -0.021374 
-0.417107 -0.055298 -0.21044 -0.454354 0.024062 0.284573 -0.46273 0.074456 -0.149921 
-0.472099 -0.024655 0.214937 -0.48205 0.113245 0.158341 -0.510691 -0.027447 -0.174456 
-0.474517 -0.082623 -0.354003 -0.487082 -0.00381 -0.079451 -0.472674 -0.107931 -0.310113 
-0.511921 0.088718 0.191919 -0.524883 0.117962 0.316609 -0.51409 0.055656 0.25119 
-0.488198 -0.006834 -0.287627 -0.52751 -0.106091 -0.346143 -0.506811 0.087654 0.352374 
-0.533663 0.026828 0.338234 -0.519789 0.04892 0.372245 -0.521909 0.022549 -0.230435 
-0.519905 0.044256 -0.153901 -0.52255 -0.087703 -0.415755 -0.536023 0.008573 -0.15097 
-0.528202 -0.043193 -0.2568 -0.576091 0.098121 0.381486 -0.545766 0.105736 0.451066 
-0.550388 0.161346 0.538567 -0.545864 -0.146554 -0.43738 -0.55331 -0.249671 -0.601007 
-0.563856 -0.183664 -0.520121 -0.557723 0.182511 0.484001 -0.533462 0.13672 0.390591 
-0.55442 0.064129 0.420086 -0.580638 -0.133799 -0.514691 -0.576329 0.224732 0.582887 
-0.561953 -0.074336 -0.40943 -0.577913 -0.123121 -0.425137 -0.57327 0.16291 0.43593 
-0.589182 -0.193535 -0.506155 -0.582069 0.131199 0.450932 -0.548681 0.156811 0.631144 
-0.582206 0.139779 0.563865 -0.616719 0.211456 0.56976 -0.583271 0.225436 0.616861 
-0.64585 -0.191086 -0.548031 -0.604666 0.157458 0.548135 -0.633885 -0.176829 -0.599654 
-0.626621 0.156795 0.638963 -0.613783 -0.259587 -0.568985 -0.543341 -0.056566 -0.340076 

POLYGONS 501 1500
OFFSETS vtktypeint64
0 3 6 9 12 15 18 21 24 
27 30 33 36 39 42 45 48 51 
54 57 60 63 66 69 72 75 78 
81 84 87 90 93 96 99 102 105 
108 111 114 117 120 123 126 129 132 
135 138 141 144 147 150 153 156 159 
162 165 168 171 174 177 180 183 186 
189 192 195 198 201 204 207 210 213 
216 219 222 225 228 231 234 237 240 
243 246 249 252 255 258 261 264 267 
270 273 276 279 282 285 288 291 294 
297 300 303 306 309 312 315 318 321 
324 327 330 333 336 339 342 345 348 
351 354 357 360 363 366 369 372 375 
378 381 384 387 390 393 396 399 402 
405 408 411 414 417 420 423 426 429 
432 435 438 441 444 447 450 453 456 
459 462 465 468 471 474 477 480 483 
486 489 492 495 498 501 504 507 510 
513 516 519 522 525 528 531 534 537 
540 543 546 549 552 555 558 561 564 
567 570 573 576 579 582 585 588 591 
594 597 600 603 606 609 612 615 618 
621 624 627 630 633 636 639 642 645 
648 651 654 657 660 663 666 669 672 
675 678 681 684 687 690 693 696 699 
702 705 708 711 714 717 720 723 726 
729 732 735 738 741 744 747 750 753 
756 759 762 765 768 771 774 777 780 
783 786 789 792 795 798 801 804 807 
810 813 816 819 822 825 828 831 834 
837 840 843 846 849 852 855 858 861 
864 867 870 873 876 879 882 885 888 
891 894 897 900 903 906 909 912 915 
918 921 924 927 930 933 936 939 942 
945 948 951 954 957 960 963 966 969 
972 975 978 981 984 987 990 993 996 
999 1002 1005 1008 1011 1014 1017 1020 1023 
1026 1029 1032 1035 1038 1041 1044 1047 1050 
1053 1056 1059 1062 1065 1068 1071 1074 1077 
1080 1083 1086 1089 1092 1095 1098 1101 1104 
1107 1110 1113 1116 1119 1122 1125 1128 1131 
1134 1137 1140 1143 1146 1149 1152 1155 1158 
1161 1164 1167 1170 1173 1176 1179 1182 1185 
1188 1191 1194 1197 1200 1203 1206 1209 1212 
1215 1218 1221 1224 1227 1230 1233 1236 1239 
1242 1245 1248 1251 1254 1257 1260 1263 1266 
1269 1272 1275 1278 1281 1284 1287 1290 1293 
1296 1299 1302 1305 1308 1311 1314 1317 1320 
1323 1326 1329 1332 1335 1338 1341 1344 1347 
1350 1353 1356 1359 1362 1365 1368 1371 1374 
1377 1380 1383 1386 1389 1392 1395 1398 1401 
1404 1407 1410 1413 1416 1419 1422 1425 1428 
1431 1434 1437 1440 1443 1446 1449 1452 1455 
1458 1461 1464 1467 1470 1473 1476 1479 1482 
1485 1488 1491 1494 1497 1500 
CONNECTIVITY vtktypeint64
181 178 166 179 178 190 167 178 179 
165 171 181 193 194 199 193 199 208 
208 199 202 193 195 194 193 179 195 
178 167 166 164 167 179 180 173 202 
164 150 167 160 150 164 161 172 173 
182 160 164 148 150 160 162 177 172 
177 152 170 182 152 160 152 148 160 
152 182 170 81 79 87 77 79 81 
76 65 81 77 71 79 63 71 77 
55 77 81 63 77 55 65 55 81 
66 47 65 47 51 65 60 63 55 
60 47 66 48 55 65 48 60 55 
47 42 51 42 60 48 60 42 47 
176 185 175 176 171 169 171 165 169 
178 171 175 171 176 175 202 213 208 
201 193 208 200 193 201 202 207 213 
202 173 207 173 197 207 164 179 193 
182 193 200 174 182 200 172 174 197 
172 197 173 172 170 174 170 182 174 
177 170 172 51 48 65 51 42 48 
207 215 213 215 208 213 218 200 201 
197 205 219 205 174 200 174 205 197 
214 208 226 208 215 226 214 201 208 
218 201 214 205 200 218 215 207 219 
219 205 220 197 219 207 215 219 226 
219 234 226 239 226 241 239 214 226 
218 233 227 220 218 227 219 220 234 
205 218 220 244 239 241 233 239 232 
227 233 232 226 234 241 234 227 241 
228 243 227 220 227 234 241 247 244 
236 232 244 232 239 244 241 243 247 
227 243 241 228 232 236 227 232 228 
228 242 243 245 244 249 236 244 245 
244 247 249 243 249 247 243 242 249 
242 236 245 228 236 242 242 245 249 
36 35 41 41 35 61 41 61 67 
67 61 75 75 92 99 75 99 96 
67 75 82 92 75 88 97 85 84 
97 84 113 97 113 121 84 96 113 
121 113 115 1 3 0 2 4 8 
5 7 11 4 5 8 8 5 13 
5 11 13 23 13 11 98 67 82 
98 82 114 96 99 111 99 92 111 
96 111 113 113 111 115 0 3 9 
3 2 10 9 3 10 10 8 17 
9 10 14 11 19 23 23 19 39 
23 39 45 45 39 50 101 67 98 
98 114 125 14 10 17 14 17 25 
38 45 56 46 38 56 56 45 50 
101 98 107 107 98 124 124 98 125 
25 17 32 198 212 217 229 198 217 
198 223 210 223 198 229 216 210 223 
229 217 238 216 223 251 251 223 237 
123 88 97 123 97 118 118 97 121 
92 88 123 111 92 123 123 118 142 
111 123 115 115 123 132 121 115 127 
118 121 136 136 121 127 115 132 127 
142 118 134 136 127 145 145 127 132 
10 2 8 8 13 12 8 12 17 
12 13 23 132 123 142 132 142 135 
145 132 135 12 23 28 17 12 28 
17 28 32 32 28 38 32 38 46 
45 38 28 231 229 240 223 229 231 
240 229 238 223 231 235 240 238 246 
237 223 235 238 237 246 237 235 246 
246 235 248 118 136 134 140 134 136 
141 136 145 140 136 141 140 141 145 
134 140 142 142 140 135 135 140 145 
2 3 4 230 240 250 240 230 231 
231 230 235 250 240 246 248 230 250 
235 230 248 248 250 246 171 178 181 
185 181 190 175 185 190 195 179 190 
181 166 195 178 175 190 181 195 190 
185 165 181 169 165 185 169 185 176 
63 60 66 76 66 65 63 68 71 
83 66 76 68 63 66 68 66 83 
69 71 78 71 69 79 68 78 71 
76 81 103 78 68 83 83 76 103 
90 83 103 40 44 54 64 54 44 
37 54 69 54 64 69 69 64 79 
87 79 64 87 64 95 87 103 81 
87 95 103 64 44 102 64 102 89 
64 89 95 103 95 109 89 100 95 
89 102 100 102 120 100 109 95 100 
109 100 116 109 116 130 102 73 108 
120 102 108 108 129 120 100 120 116 
116 122 130 116 120 122 130 122 126 
120 129 122 122 148 143 122 129 148 
126 122 137 122 143 137 129 139 148 
148 139 150 143 148 152 137 143 155 
162 137 155 155 143 152 155 152 177 
162 155 177 139 153 150 162 172 161 
180 161 173 161 180 183 153 167 150 
186 183 189 189 183 180 189 180 202 
167 153 166 153 158 166 166 158 187 
166 187 195 203 199 194 189 202 203 
189 203 211 202 199 203 203 194 211 
211 194 222 195 188 194 195 187 188 
188 192 194 192 206 194 37 69 74 
78 83 90 31 40 37 37 40 54 
74 69 78 74 78 93 86 74 93 
93 78 90 104 90 103 93 90 104 
109 104 103 22 34 44 22 44 40 
44 34 102 94 93 104 94 104 119 
104 109 130 30 59 34 73 34 59 
102 34 73 104 130 119 119 130 133 
73 80 108 73 59 80 59 57 80 
108 80 105 133 130 126 80 91 105 
108 105 129 126 137 133 129 105 139 
137 162 156 156 162 161 156 161 183 
105 146 139 139 146 153 159 156 183 
159 183 186 131 158 146 153 146 158 
191 186 189 158 157 187 192 184 206 
189 211 191 209 191 211 209 211 224 
187 157 192 187 192 188 194 206 222 
211 222 224 222 206 221 224 222 221 
24 31 37 29 37 74 22 21 34 
133 137 156 29 24 37 26 31 24 
22 40 31 26 22 31 70 74 86 
94 86 93 16 15 21 16 21 22 
26 16 22 107 124 128 4 3 1 
88 85 97 82 75 106 4 1 5 
85 70 84 88 52 85 75 52 88 
52 29 85 61 52 75 61 35 52 
35 29 52 251 237 238 217 251 238 
251 217 221 217 225 221 216 196 210 
212 225 217 196 198 210 212 204 225 
198 204 212 196 204 198 196 168 204 
128 147 131 107 131 117 128 138 147 
107 128 131 110 107 117 25 32 46 
125 144 138 128 124 138 124 125 138 
110 101 107 110 62 101 43 56 58 
56 50 58 58 50 53 46 56 43 
18 25 43 25 46 43 112 144 125 
62 67 101 50 39 53 72 53 62 
39 27 53 33 14 25 33 9 14 
6 9 33 114 112 125 114 106 112 
82 106 114 62 41 67 53 27 62 
27 41 62 19 27 39 19 20 27 
11 20 19 11 15 20 20 15 16 
15 7 33 11 7 15 6 0 9 
7 6 33 5 1 6 5 6 7 
1 0 6 106 94 112 96 94 106 
96 84 94 24 35 36 27 36 41 
20 26 27 26 36 27 16 26 20 
84 86 94 84 70 86 85 29 70 
35 24 29 26 24 36 70 29 74 
221 225 224 225 209 224 221 206 216 
184 196 216 206 184 216 204 209 225 
204 191 209 184 163 196 157 163 184 
163 168 196 157 184 192 151 163 157 
204 168 191 168 186 191 163 159 168 
168 159 186 151 159 163 158 154 157 
157 154 151 158 131 154 151 147 159 
159 149 156 154 147 151 154 131 147 
117 131 146 138 159 147 138 149 159 
149 144 156 138 144 149 105 117 146 
144 133 156 105 91 117 117 91 110 
91 62 110 57 43 58 58 53 57 
49 43 57 18 43 49 33 25 18 
144 119 133 72 62 91 57 53 80 
80 53 72 18 49 59 59 49 57 
59 30 18 112 119 144 94 119 112 
21 15 18 21 18 30 34 21 30 
15 33 18 80 72 91 251 221 216 
106 75 96 214 233 218 233 214 239 
182 164 193 23 45 28 
POINT_DATA 252
SCALARS k float
LOOKUP_TABLE default
0.591739 1.16355 0.810971 1.86399 0.559928 0.0592268 0.104664 -0.236138 -0.690929 
-0.200613 -0.471519 -0.348829 0.317109 0.290353 0.322035 -0.469471 -0.0131148 0.167376 
-0.323609 -0.0832675 -0.559456 0.217466 -0.0326626 0.22485 0.169949 0.199942 -0.236663 
-0.902995 0.529689 0.136039 0.137657 0.103691 0.706099 0.019935 -0.0681502 0.256048 
0.141672 0.327212 0.310567 -0.10639 0.0371506 0.122804 2.9044 0.0346313 0.094264 
0.543793 0.616455 0.951685 1.04568 0.0144393 -0.0727252 2.25448 0.445177 -0.866445 
0.252902 -0.758263 0.105807 -0.222326 0.0600063 0.070124 -0.341742 0.162764 -0.700861 
-0.0907149 -0.0305769 -0.132301 -0.0821326 -0.234412 -0.0815297 -0.499115 0.188422 -0.434581 
-0.30375 0.00075841 -0.152802 -0.9414 0.0520319 0.0465182 -0.849783 -0.300808 -0.774462 
0.191162 -0.223553 -0.0790299 -0.786864 -0.324927 -0.0249436 -0.179936 -0.167962 0.0611483 
-0.214246 -0.340245 -0.0388244 -0.603328 -0.361525 0.186344 -1.9402 0.117176 0.0641559 
0.789463 -0.123103 0.0849468 -0.0604823 -0.0992678 -0.5047 -0.0753391 -0.909132 0.379275 
-0.0469161 -0.477643 0.11582 0.0320145 0.13333 -0.0976859 0.0424339 -0.329366 0.0726382 
0.196085 -0.228294 0.190412 0.107752 -0.230166 -0.466324 -0.133624 0.172335 0.251231 
0.0128969 -0.255547 0.111717 -0.149883 -0.118202 -0.149193 0.0430754 -0.0927035 0.0948442 
1.46667 -0.3062 -0.625865 -0.156564 -0.149566 1.25671 2.60036 0.038072 -0.136148 
0.0499786 1.52348 -0.0233724 -0.168523 -0.132112 0.13551 0.146317 -0.265709 -0.246148 
0.0145007 0.0592779 -0.319273 -0.605099 -0.042261 0.0301303 -0.641623 0.0735773 -0.185884 
0.202995 0.137068 0.332543 2.20098 -1.33773 -1.05162 0.0103158 3.07665 0.309625 
0.378379 0.305023 0.124257 -0.400089 0.459628 0.257172 0.352278 -0.958891 -0.852339 
-0.115654 -0.516697 -0.343041 0.286921 -0.0906656 0.32398 -0.244385 0.210511 0.227518 
-0.206872 0.252656 -0.162366 -0.200004 -1.28234 -0.42617 -1.20629 -0.66152 -0.103469 
0.0813495 -0.648598 -0.155277 -0.0943476 -0.349099 -0.544489 -0.615516 -0.175916 0.00808823 
0.0992441 -0.131762 0.0347726 -0.0492579 0.183206 0.359482 0.708622 -0.594973 -0.316896 
-0.177015 -0.21071 -0.23575 0.0236046 -0.0814262 0.0779534 0.182083 -0.196565 0.592811 
-0.232518 0.188854 -0.891982 -0.264848 -0.542778 3.00355 -0.582746 -0.0402411 -0.11181 
0.691697 -0.172642 0.448434 0.258561 -0.133697 -0.0142042 -0.237949 -0.394873 2.0708 
-0.305887 0.70536 1.50255 0.603451 -0.111217 2.05623 2.61273 1.78851 -0.517758 

FIELD FieldData 7
h 1 252 float
2.18201 3.73011 1.65205 1.72649 0.269282 4.04509 3.99015 3.41423 1.13603 
1.93666 3.33773 3.36214 2.98487 1.55709 2.35348 2.96884 3.31047 16.5516 
0.951789 1.59532 2.09323 3.28582 4.24849 1.10607 2.49453 1.04583 2.85225 
0.51662 4.79799 1.14446 0.888144 4.3813 13.5388 1.63956 0.680699 1.95983 
2.00926 3.42637 3.54051 -0.028309 5.86066 0.846532 3.48531 1.28316 1.12851 
2.40384 6.76271 1.25923 3.13962 0.916342 -0.310879 3.33041 2.17135 -1.38695 
5.04053 0.850598 2.47727 1.62298 1.91735 0.506642 0.929747 1.42074 -0.223462 
1.23169 0.531702 3.09758 1.96437 0.522621 -0.825483 2.09193 1.49468 1.38141 
1.47817 0.363797 0.779392 0.116065 2.7633 2.14518 -0.633886 0.748997 1.02843 
0.671698 1.12915 0.948683 -1.92143 1.08855 0.67015 1.24335 2.52557 0.384941 
0.66218 3.557 0.572848 -0.0712407 -1.92974 1.31452 -1.22228 3.31992 1.25551 
-0.523166 0.216878 0.581327 0.197611 1.88768 -1.7928 1.40207 1.89204 0.789383 
0.259234 2.16613 1.50727 0.207442 1.11564 -2.14902 2.39284 -3.91106 1.08528 
1.63453 1.47286 -1.05595 0.239466 0.309107 0.895685 -0.588892 2.44905 2.73546 
2.5904 -0.761422 1.73374 -0.000309333 1.9154 0.231977 -3.51485 -0.429708 3.11638 
27.1164 2.75585 0.95441 3.01882 0.738235 -0.0833079 0.904073 -0.0674101 2.01748 
0.305545 8.41018 1.94018 0.685199 -0.329825 -0.098907 -0.149622 0.145605 1.75322 
2.69342 0.341783 1.5096 -0.487619 0.878935 0.848506 3.19439 0.196526 0.0766066 
-0.304086 0.188568 -0.774913 -0.384275 1.19625 1.57243 0.300307 1.20999 0.545375 
-0.145365 1.54194 0.187956 -1.25842 1.90899 0.350382 2.04512 -1.37769 0.0900495 
-0.0550691 -1.09 -1.78949 0.339543 1.0057 0.296056 -0.147053 1.09605 1.51342 
-0.301762 -1.70023 -0.522605 1.13505 0.452762 0.273789 0.941348 0.867652 1.24585 
1.26495 0.134669 -0.750237 0.636396 0.707805 1.99333 -0.398503 -0.188044 1.12066 
0.049248 0.579296 -0.397377 0.71082 1.54629 -0.253527 3.04087 0.310808 3.60608 
1.07977 1.75255 -0.708313 0.886028 3.62403 0.375976 -0.353675 0.661082 0.65099 
0.642959 2.87973 0.83175 3.15352 2.33271 9.48981 8.47708 1.78604 -1.31214 
0.709141 2.47042 -2.69224 1.93021 5.17241 0.708416 1.83028 1.32508 5.89067 
4.18983 5.18073 16.8275 17.2708 2.93411 1.72633 10.4722 3.59751 1.47605 

kmin 1 252 float
4.4056 9.64563 2.65231 5.46524 2.01011 10.4357 8.46997 8.85705 2.53044 
3.52005 6.40019 8.16654 6.32369 4.70596 4.8451 6.48704 7.53175 29.3045 
1.77068 4.7071 5.66859 6.57238 8.62676 4.47105 5.99388 1.93238 7.42271 
2.39146 9.41604 1.63511 0.917666 9.325 24.1223 3.05307 0.819078 4.70233 
5.06378 6.8766 4.22507 1.66147 11.8535 2.5371 8.03329 2.42763 1.80869 
8.61557 13.1692 3.2967 7.38406 1.6477 0.537582 7.28339 5.67104 -0.115246 
10.5305 2.57008 3.64133 2.67156 3.24013 1.46478 6.69776 2.86546 0.792281 
4.29732 1.45544 6.6739 6.42709 1.84753 0.989327 4.03608 7.27071 3.34582 
5.83357 1.16887 6.92204 1.08579 6.66192 5.17268 -0.0103066 2.09814 2.66038 
2.12858 2.44739 2.56521 -1.01075 3.8371 2.88247 3.16849 5.55835 2.15961 
2.04386 7.96192 1.56925 2.71848 -0.760014 4.67647 1.23949 6.15143 2.20703 
0.666629 2.96123 2.08857 1.22698 5.78562 -1.29063 3.26089 2.78431 1.8072 
0.948018 6.28417 2.1669 2.12976 2.17019 -0.87009 3.82422 -2.42551 3.91825 
2.74214 3.1452 -0.495884 0.838779 2.28627 3.05063 0.16302 4.06417 5.53567 
7.10131 1.95285 2.33078 0.457715 5.55262 1.76166 -0.246473 -0.118226 6.77326 
53.5526 6.32902 3.57657 5.89014 1.9909 0.447177 2.74194 0.846994 5.54448 
1.18761 17.6979 3.50498 2.12142 -0.102039 0.957822 1.18567 1.60944 5.65791 
5.80846 1.77164 4.08544 0.195161 2.51116 2.03154 8.43942 1.57705 0.933759 
0.763358 1.18034 2.0022 0.0849296 1.66997 3.37212 2.72811 3.25165 2.69776 
0.236561 3.24786 1.56828 -0.734051 3.79034 1.5717 4.69081 0.253119 4.18794 
1.11207 0.598021 -1.23189 1.54163 2.49573 1.34531 1.06627 2.46046 3.98753 
0.401119 1.19351 -0.423312 2.97265 3.16287 0.386519 2.74942 4.04197 3.66518 
4.24595 2.52055 2.27468 3.27284 4.14808 5.21654 0.23469 2.02271 2.68539 
2.43567 3.05822 -0.0547194 2.64508 3.22399 0.472809 5.97032 0.922797 7.4502 
2.60058 4.36975 0.679297 2.14765 8.99172 1.24105 0.737014 2.22117 2.65963 
2.49274 5.72516 3.65299 9.77271 6.4335 18.516 19.9171 6.90576 0.0451806 
1.63649 5.66306 -1.30724 4.54733 10.4667 1.88584 4.90527 2.63217 14.0637 
8.0091 10.663 32.2635 34.3714 5.66615 3.90443 21.9261 7.93235 3.45345 

kmax 1 252 float
-0.0415837 -2.18542 0.651796 -2.01226 -1.47155 -2.34551 -0.489669 -2.02859 -0.258378 
0.35326 0.275273 -1.44226 -0.353958 -1.59178 -0.138131 -0.549358 -0.910809 3.79874 
0.132898 -1.51646 -1.48213 -0.000738771 -0.129784 -2.25891 -1.00481 0.159277 -1.71821 
-1.35822 0.179935 0.653813 0.858623 -0.562402 2.95526 0.226048 0.542319 -0.782676 
-1.04526 -0.0238603 2.85595 -1.71809 -0.13223 -0.844036 -1.06266 0.138681 0.448334 
-3.80788 0.356169 -0.778243 -1.10483 0.184985 -1.15934 -0.622557 -1.32834 -2.65865 
-0.449434 -0.868884 1.31321 0.574396 0.594573 -0.451494 -4.83827 -0.023973 -1.23921 
-1.83393 -0.392033 -0.478748 -2.49835 -0.802291 -2.64029 0.147775 -4.28136 -0.582997 
-2.87723 -0.441277 -5.36326 -0.853659 -1.13531 -0.882328 -1.25747 -0.600151 -0.60352 
-0.78518 -0.189082 -0.667841 -2.83212 -1.66 -1.54217 -0.681792 -0.507211 -1.38973 
-0.719499 -0.847928 -0.423551 -2.86096 -3.09947 -2.04744 -3.68406 0.488397 0.303988 
-1.71296 -2.52748 -0.925918 -0.831757 -2.01025 -2.29497 -0.456744 0.999773 -0.228437 
-0.42955 -1.95191 0.847638 -1.71488 0.0610926 -3.42795 0.961468 -5.3966 -1.74769 
0.526919 -0.199473 -1.61602 -0.359846 -1.66805 -1.25926 -1.3408 0.833935 -0.0647585 
-1.92051 -3.47569 1.13669 -0.458334 -1.72183 -1.29771 -6.78322 -0.741189 -0.540503 
0.680158 -0.817321 -1.66775 0.147507 -0.51443 -0.613793 -0.933789 -0.981814 -1.50952 
-0.576518 -0.877527 0.375371 -0.751018 -0.557612 -1.15564 -1.48492 -1.31823 -2.15147 
-0.421617 -1.08808 -1.06624 -1.1704 -0.753292 -0.334533 -2.05064 -1.18399 -0.780546 
-1.37153 -0.803203 -3.55203 -0.85348 0.722527 -0.227262 -2.1275 -0.831676 -1.60701 
-0.527291 -0.163974 -1.19237 -1.78278 0.02765 -0.870937 -0.60057 -3.0085 -4.00784 
-1.22221 -2.77802 -2.34709 -0.86254 -0.484333 -0.753196 -1.36038 -0.26835 -0.960688 
-1.00464 -4.59397 -0.621898 -0.702541 -2.25734 0.16106 -0.866721 -2.30667 -1.17348 
-1.71606 -2.25121 -3.77515 -2.00005 -2.73247 -1.22989 -1.0317 -2.3988 -0.444064 
-2.33718 -1.89963 -0.740034 -1.22344 -0.1314 -0.979863 0.111425 -0.301181 -0.238034 
-0.441045 -0.864656 -2.09592 -0.375596 -1.74366 -0.489095 -1.44436 -0.899006 -1.35765 
-1.20682 0.0343 -1.98949 -3.46567 -1.76809 0.463582 -2.96298 -3.33369 -2.66946 
-0.218208 -0.722233 -4.07723 -0.686907 -0.121844 -0.469008 -1.24472 0.0179825 -2.28238 
0.370556 -0.301502 1.39142 0.170295 0.20206 -0.451772 -0.981684 -0.737331 -0.501352 

hks 16 252 double
0.93418494728 0.93871042262 0.9431749046 0.94757744779 0.95191822627 0.95619858323 0.96042107521 0.96458950997 0.96870897654 
0.97278586569 0.97682787888 0.98084402372 0.98484459353 0.98884112907 0.99284636046 0.99687412748 0.90636265482 0.91261945604 
0.91874338295 0.9247345558 0.93059415487 0.93632447098 0.94192895976 0.94741229712 0.9527804324 0.95804063534 0.96320153303 
0.96827313256 0.97326682563 0.97819537154 0.98307285545 0.98791461975 0.83524588359 0.84247590423 0.84979907981 0.85719991444 
0.86466317826 0.87217418205 0.87971904381 0.88728494112 0.89486034297 0.90243521564 0.91000119763 0.91755173943 0.92508220491 
0.93258993211 0.94007425208 0.94753646578 0.90015925515 0.90739435776 0.91447761529 0.92140870704 0.92818861901 0.93481965413 
0.94130544324 0.9476509555 0.95386250624 0.95994775997 0.96591572575 0.97177674218 0.977542449 0.98322574278 0.98884071422 
0.9944025653 0.85787728845 0.86520241126 0.87251019675 0.87979081987 0.88703517412 0.89423504582 0.90138328559 0.90847397258 
0.91550256685 0.92246604496 0.92936301437 0.93619380234 0.9429605156 0.94966706777 0.95631917213 0.9629242985 0.65872414725 
0.66584003836 0.67310579555 0.68051059193 0.68804375351 0.69569493247 0.70345427235 0.71131256158 0.71926137191 0.72729317851 
0.73540145909 0.7435807696 0.75182679474 0.76013637211 0.76850748942 0.77693925485 0.731535362 0.73763473244 0.74380417068 
0.75003855809 0.75633302195 0.7626830688 0.76908471787 0.77553463032 0.78203023012 0.78856981224 0.79515263416 0.80177898706 
0.80845024351 0.81516887916 0.82193846681 0.82876364166 0.46335156155 0.46845371706 0.47381679396 0.47944024407 0.48532243147 
0.49146071722 0.49785155729 0.50449061031 0.51137285136 0.51849268809 0.52584407543 0.53342062544 0.54121570909 0.54922254725 
0.55743428859 0.56584407297 0.65526543478 0.66336009348 0.67166954265 0.6801867099 0.6889032793 0.69780983618 0.70689603593 
0.71615079229 0.72556247925 0.73511914084 0.74480870247 0.75461917794 0.764538866 0.77455653125 0.78466156465 0.79484411953 
0.75540244557 0.7619799397 0.76860017688 0.7752608174 0.78195990498 0.78869592742 0.79546787718 0.8022753097 0.80911839728 
0.81599797587 0.82291558257 0.82987348133 0.83687467488 0.84392290092 0.85102261152 0.85817893452 0.69892389096 0.70783912672 
0.71684511038 0.72593311919 0.73509446372 0.74432061853 0.75360335417 0.76293486669 0.77230790103 0.78171586456 0.79115292745 
0.80061410669 0.81009533126 0.81959348646 0.82910643614 0.83863302204 0.44773596933 0.44718115534 0.44694776258 0.4470537119 
0.44751606661 0.44835080508 0.44957260132 0.45119461851 0.45322832002 0.45568330221 0.45856715216 0.46188533337 0.46564110131 
0.46983545003 0.47446709053 0.47953246058 0.54389663186 0.54737929268 0.55122419883 0.55544274466 0.56004420341 0.56503562121 
0.5704217464 0.57620499514 0.58238545344 0.58896091502 0.59592695311 0.60327702372 0.61100259705 0.61909331283 0.6275371551 
0.63632064135 0.57265449329 0.57429713377 0.5764006778 0.57897132362 0.58201336116 0.58552909472 0.58951878766 0.59398063176 
0.59891074363 0.60430318947 0.61015003844 0.61644144425 0.62316575307 0.63030963538 0.63785823833 0.64579535468 0.57277753544 
0.57771590394 0.58306065391 0.58880621476 0.59494494692 0.60146734912 0.60836228326 0.61561721037 0.62321843083 0.63115132276 
0.63940057285 0.64795039459 0.65678472975 0.66588742972 0.67524241436 0.68483380696 0.32017217317 0.32050050188 0.32104348327 
0.3218157332 0.32283093988 0.32410173206 0.32563955941 0.32745458688 0.32955560511 0.33194995816 0.33464348996 0.33764051036 
0.3409437812 0.34455452241 0.34847243768 0.35269575877 0.36726421886 0.36314593836 0.35907595785 0.35506723295 0.35113292373 
0.34728633658 0.34354085771 0.33990987879 0.33640671558 0.33304452094 0.3298361941 0.32679428833 0.32393091942 0.32125767761 
0.31878554539 0.31652482354 0.54204908676 0.54733150815 0.55294780905 0.55890366333 0.56520289785 0.57184743823 0.57883728788 
0.5861705406 0.59384342548 0.60185038229 0.61018416415 0.61883596405 0.62779556049 0.63705147776 0.64659115566 0.65640112373 
0.35706443899 0.35558973988 0.35423344438 0.35301328438 0.35194690111 0.35105167938 0.35034458066 0.34984197744 0.34955949162 
0.3495118397 0.34971268753 0.35017451712 0.35090850805 0.35192443557 0.35323058713 0.35483369891 0.45159579718 0.44569010514 
0.44001113172 0.43457744744 0.42940838084 0.42452387172 0.41994428416 0.41569018275 0.41178207685 0.40824013938 0.40508390726 
0.4023319722 0.40000167037 0.39810878039 0.39666723839 0.395688879 0.37632144169 0.37164678555 0.36711532338 0.36274605691 
0.3585580725 0.35457041444 0.35080194216 0.34727117286 0.34399611246 0.34099407789 0.33828151527 0.33587381839 0.33378515266 
0.33202828965 0.33061445721 0.32955321004 0.37694454052 0.37258830242 0.3682782155 0.36402790432 0.35985128103 0.35576248589 
0.35177581578 0.34790564071 0.34416630918 0.34057204394 0.33713683039 0.33387430028 0.33079761392 0.32791934438 0.3252513671 
0.32280475848 0.44384097005 0.43884897754 0.43374927576 0.42854431183 0.42323737541 0.41783267553 0.41233540845 0.40675181507 
0.40108922598 0.39535609329 0.38956200791 0.38371770161 0.37783503347 0.37192696048 0.3660074925 0.36009163202 0.48726233118 
0.4873019397 0.48752446503 0.48795003745 0.48859879225 0.48949067032 0.49064520964 0.49208133028 0.49381711675 0.4958696011 
0.49825455128 0.50098626878 0.50407739989 0.50753876489 0.51137920895 0.51560547822 0.41220541693 0.40789023655 0.40346499036 
0.39892910402 0.39428256488 0.38952603766 0.384660978 0.37968974149 0.37461568576 0.36944326322 0.36417810248 0.35882707648 
0.35339835576 0.34790144537 0.34234720459 0.33674784824 0.46212062818 0.46400576161 0.46615003007 0.46856667698 0.47126823344 