# vtk DataFile Version 5.1
vtk output
ASCII
DATASET POLYDATA
POINTS 252 float
0.866552 0.179288 0.05072 0.853205 0.193825 0.07842 0.861149 0.22965 0.015372 
0.822152 0.225565 0.07154 0.759158 0.216966 0.035804 0.712485 0.121117 0.050644 
0.706966 0.132844 0.008824 0.807359 0.191035 -0.016277 0.653955 0.154924 -0.014102 
0.680564 0.190823 0.063152 0.650721 0.212242 0.016889 0.670109 0.134664 0.075249 
0.591409 0.185833 -0.055248 0.586467 0.081141 -0.01413 0.568922 0.218514 -0.035533 
0.593339 0.113874 -0.04815 0.520078 0.1673 -0.093299 0.522779 0.219815 0.002125 
0.600232 0.177307 0.047805 0.504633 -0.261005 -0.06346 0.538756 -0.319531 0.041218 
0.53059 0.170225 0.05947 0.546271 0.081529 0.048898 0.577614 -0.275688 0.078838 
0.521658 -0.229919 0.068063 0.472697 -0.212075 -0.065837 0.491352 0.109707 -0.035126 
0.579748 -0.33671 0.097934 0.491114 -0.339422 0.042673 0.398583 0.206051 -0.070973 
0.413438 -0.196676 -0.017801 0.527622 -0.269816 0.140182 0.459179 -0.279192 -0.08887 
0.606667 -0.351537 0.277193 0.554747 -0.373656 0.163439 0.406913 0.130003 -0.12635 
0.477684 0.124036 0.007967 0.333422 0.176299 -0.041008 0.567686 -0.321249 0.314934 
0.398914 -0.303231 -0.027167 0.508527 -0.304433 0.203493 0.42462 0.10389 -0.053655 
0.350729 -0.15835 -0.141736 0.394032 0.189093 -0.124489 0.550994 -0.370075 0.287324 
0.327523 0.087991 -0.138615 0.485322 -0.351053 0.155358 0.428324 -0.281568 0.107073 
0.311538 -0.23948 -0.116157 0.401336 -0.295351 0.031574 0.410201 -0.236685 0.044542 
0.307283 0.174265 -0.121652 0.321316 0.143803 -0.14363 0.34552 -0.110063 -0.085794 
0.326382 0.069849 -0.011101 0.308775 -0.234788 -0.030559 0.406727 0.146081 -0.005361 
0.308435 -0.183493 -0.16556 0.344228 -0.148665 -0.008683 0.207258 0.183246 -0.18026 
0.218847 -0.218039 -0.142282 0.19078 0.172146 -0.224901 0.249773 -0.096716 -0.206538 
0.247105 0.062344 -0.138301 0.297186 0.047044 -0.070782 0.178325 -0.024643 -0.243859 
0.211727 0.003644 -0.16853 0.168366 -0.139187 -0.240625 0.237641 -0.022527 -0.118646 
0.134622 0.224568 -0.151239 0.24541 0.048084 -0.03728 0.153905 -0.060848 -0.305278 
0.257546 0.159598 -0.008059 0.134872 0.16829 -0.211319 0.07768 0.033142 -0.271631 
0.211889 0.215314 -0.065299 0.219554 -0.072519 -0.015518 0.221224 -0.133786 -0.00014 
0.180372 -0.202576 -0.068904 0.205132 -0.033268 0.016035 0.202774 -0.013584 -0.056346 
0.220992 0.073017 0.010795 0.08446 -0.198806 -0.159498 0.16013 0.134415 0.02104 
0.093999 -0.157719 -0.278639 0.006465 -0.123747 -0.2263 0.03539 -0.067882 -0.281448 
0.136382 -0.063488 -0.016975 0.125248 -0.1853 -0.047231 0.049874 0.156081 -0.206868 
0.184257 0.071387 0.050985 -0.019803 -0.0468 -0.267524 0.181683 0.327144 0.172348 
0.183939 0.281791 0.259279 0.069357 0.202482 -0.078786 0.103308 0.106583 0.038442 
0.119134 0.180521 0.046278 -0.002546 0.12258 -0.204911 0.114825 0.267702 0.095043 
0.06484 -0.161962 -0.070175 0.185953 0.324047 0.299206 -0.049856 0.135923 -0.268709 
0.108025 0.221565 -0.009924 0.153942 0.370098 0.180875 0.028264 -0.162488 -0.137102 
-0.070207 0.002995 -0.320637 0.125407 0.22525 0.147797 0.042822 0.091608 0.040001 
0.052425 -0.057364 0.009578 0.096281 0.316003 0.126764 0.11425 0.359007 0.299473 
0.155645 0.276837 0.367934 0.075548 0.34346 0.205754 0.138001 0.199807 0.303411 
0.010901 0.160775 -0.011842 -0.146797 -0.006795 -0.297106 -0.036394 -0.161578 -0.090433 
-0.098182 0.060364 -0.30378 -0.137942 0.112282 -0.10881 -0.043539 0.144268 -0.091468 
-0.023155 -0.102024 -0.003152 -0.112625 -0.038729 -0.299511 0.064332 0.285658 0.336251 
-0.04661 -0.006372 0.09613 -0.113202 0.17639 -0.050378 0.084893 0.19933 0.329774 
-0.002781 0.154269 0.061012 -0.118925 -0.066472 -0.17821 0.066091 0.178963 0.248459 
-0.056671 0.181882 0.012065 0.001377 0.334907 0.14227 0.011332 0.360117 0.22978 
0.024784 0.167681 0.200429 0.043166 0.250983 0.145633 -0.077591 -0.108578 -0.180389 
-0.089368 0.059368 0.126086 -0.100266 -0.187398 -0.111294 -0.0971 0.388407 0.09898 
-0.097098 0.093099 0.070421 -0.220221 -0.05007 -0.230137 -0.173834 0.136277 -0.180887 
-0.045865 0.329284 0.224383 -0.100922 0.209124 0.005125 -0.002297 0.291497 0.265268 
-0.075996 0.269671 0.077881 -0.035994 -0.009437 0.031306 -0.089648 0.319717 0.036969 
-0.210512 0.103675 -0.228796 -0.127513 0.225862 0.091779 -0.101969 0.154868 0.057942 
-0.156558 -0.303706 -0.083938 -0.112487 -0.288481 -0.02716 -0.083687 -0.18356 0.029713 
-0.047975 0.245379 0.171349 -0.130316 0.31556 0.164282 -0.084616 -0.142812 0.044416 
-0.181518 -0.069952 -0.142933 -0.145075 0.349595 0.028563 -0.228584 0.056091 -0.17874 
-0.170566 0.223838 -0.060916 -0.000475 0.071841 0.103629 -0.131606 -0.0487 0.142418 
-0.111869 -0.068644 0.057482 -0.152493 0.358487 0.13043 -0.191443 -0.213567 -0.115063 
-0.219353 -0.108439 -0.103377 -0.145026 0.278246 0.134936 -0.071734 -0.350568 0.198432 
-0.294423 0.107735 -0.147831 -0.237013 0.139593 -0.091581 -0.250836 -0.319874 -0.041773 
-0.129935 -0.16854 0.090245 -0.136741 -0.278668 0.041022 -0.072742 -0.307681 0.208525 
-0.205167 -0.36099 0.013769 -0.133454 -0.343281 0.077328 -0.127211 -0.407387 0.195486 
-0.220615 -0.200421 -0.069023 -0.102164 -0.266411 0.264277 -0.183644 -0.20893 0.070031 
-0.172723 -0.371963 0.041201 -0.209502 0.272386 -0.020604 -0.166502 -0.28102 0.111557 
-0.366653 -0.027643 -0.20031 -0.170491 0.017067 0.151556 -0.261738 0.150939 -0.036456 
-0.206438 0.323183 0.047506 -0.230085 -0.22138 -0.005383 -0.268697 -0.024175 -0.172361 
-0.192376 0.162321 0.078868 -0.210452 -0.249227 0.029678 -0.205367 0.26163 0.099037 
-0.215888 0.121034 0.069984 -0.354236 0.040914 -0.198937 -0.256796 -0.11555 -0.013304 
-0.214673 -0.10325 0.071675 -0.187375 0.073829 0.116909 -0.192771 -0.293104 0.16101 
-0.084464 -0.30819 0.30747 -0.28667 -0.070865 -0.112333 -0.371044 -0.08224 -0.151792 
-0.249452 -0.283166 0.060101 -0.205984 -0.3655 0.139476 -0.17139 -0.390397 0.260104 
-0.148889 -0.272757 0.349954 -0.194046 -0.315155 0.253201 -0.248638 0.098825 0.14593 
-0.414598 0.118007 -0.111471 -0.37045 -0.111602 -0.015228 -0.291013 0.061622 0.124713 
-0.314816 -0.079296 -0.01756 -0.272731 -0.042105 0.116589 -0.329428 0.127294 -0.038675 
-0.358073 0.0189 0.064922 -0.395912 0.117348 0.027204 -0.33686 -0.026462 0.045113 
-0.473853 -0.077868 -0.095926 -0.411658 -0.065333 -0.158024 -0.400302 -0.080346 0.071295 
-0.409279 0.067236 0.087761 -0.461215 0.07361 -0.147117 -0.558954 0.008641 -0.156432 
-0.458984 0.104311 -0.052034 -0.510893 -0.067253 -0.023218 -0.458496 -0.01079 0.094216 
-0.600628 0.053473 -0.124489 -0.47257 0.072538 0.032899 -0.496968 0.018669 0.059582 
-0.55336 -0.030457 -0.024302 -0.582645 0.092349 -0.076555 -0.571342 0.024896 0.00551 
-0.548559 -0.043534 -0.129046 -0.598424 0.076697 -0.014067 -0.650089 -0.054049 -0.004041 
-0.708893 0.035372 -0.023155 -0.675107 -0.06349 -0.035422 -0.655513 -0.002092 0.051575 
-0.718102 -0.015084 -0.054381 -0.673471 0.055571 0.003861 -0.723898 0.00932 0.119711 
-0.721181 -0.041234 0.072874 -0.718808 -0.042401 -0.035778 -0.701161 -0.0653 0.16281 
-0.759204 -0.015853 0.078762 -0.700496 -0.023485 0.223158 -0.830813 -0.043111 0.128861 
-0.73622 0.021517 0.194791 -0.742977 -0.089442 0.222701 -0.776938 -0.10327 0.158346 
-0.818291 0.027074 0.1649 -0.792124 -0.016745 0.23071 -0.823218 -0.074727 0.194632 

POLYGONS 501 1500
OFFSETS vtktypeint64
0 3 6 9 12 15 18 21 24 
27 30 33 36 39 42 45 48 51 
54 57 60 63 66 69 72 75 78 
81 84 87 90 93 96 99 102 105 
108 111 114 117 120 123 126 129 132 
135 138 141 144 147 150 153 156 159 
162 165 168 171 174 177 180 183 186 
189 192 195 198 201 204 207 210 213 
216 219 222 225 228 231 234 237 240 
243 246 249 252 255 258 261 264 267 
270 273 276 279 282 285 288 291 294 
297 300 303 306 309 312 315 318 321 
324 327 330 333 336 339 342 345 348 
351 354 357 360 363 366 369 372 375 
378 381 384 387 390 393 396 399 402 
405 408 411 414 417 420 423 426 429 
432 435 438 441 444 447 450 453 456 
459 462 465 468 471 474 477 480 483 
486 489 492 495 498 501 504 507 510 
513 516 519 522 525 528 531 534 537 
540 543 546 549 552 555 558 561 564 
567 570 573 576 579 582 585 588 591 
594 597 600 603 606 609 612 615 618 
621 624 627 630 633 636 639 642 645 
648 651 654 657 660 663 666 669 672 
675 678 681 684 687 690 693 696 699 
702 705 708 711 714 717 720 723 726 
729 732 735 738 741 744 747 750 753 
756 759 762 765 768 771 774 777 780 
783 786 789 792 795 798 801 804 807 
810 813 816 819 822 825 828 831 834 
837 840 843 846 849 852 855 858 861 
864 867 870 873 876 879 882 885 888 
891 894 897 900 903 906 909 912 915 
918 921 924 927 930 933 936 939 942 
945 948 951 954 957 960 963 966 969 
972 975 978 981 984 987 990 993 996 
999 1002 1005 1008 1011 1014 1017 1020 1023 
1026 1029 1032 1035 1038 1041 1044 1047 1050 
1053 1056 1059 1062 1065 1068 1071 1074 1077 
1080 1083 1086 1089 1092 1095 1098 1101 1104 
1107 1110 1113 1116 1119 1122 1125 1128 1131 
1134 1137 1140 1143 1146 1149 1152 1155 1158 
1161 1164 1167 1170 1173 1176 1179 1182 1185 
1188 1191 1194 1197 1200 1203 1206 1209 1212 
1215 1218 1221 1224 1227 1230 1233 1236 1239 
1242 1245 1248 1251 1254 1257 1260 1263 1266 
1269 1272 1275 1278 1281 1284 1287 1290 1293 
1296 1299 1302 1305 1308 1311 1314 1317 1320 
1323 1326 1329 1332 1335 1338 1341 1344 1347 
1350 1353 1356 1359 1362 1365 1368 1371 1374 
1377 1380 1383 1386 1389 1392 1395 1398 1401 
1404 1407 1410 1413 1416 1419 1422 1425 1428 
1431 1434 1437 1440 1443 1446 1449 1452 1455 
1458 1461 1464 1467 1470 1473 1476 1479 1482 
1485 1488 1491 1494 1497 1500 
CONNECTIVITY vtktypeint64
38 31 40 48 55 60 182 190 201 
136 151 150 187 177 170 190 187 170 
190 170 201 164 150 170 177 164 170 
33 23 31 33 31 38 23 24 31 
24 23 25 24 25 30 24 30 50 
31 24 50 31 50 47 47 50 49 
173 178 198 198 178 204 178 205 204 
23 19 25 25 19 32 49 50 58 
49 58 55 25 32 42 32 57 42 
60 55 78 27 23 33 44 38 46 
40 46 38 44 33 38 170 150 174 
150 180 174 180 150 151 170 202 201 
170 174 202 151 175 180 174 180 202 
175 176 180 202 203 205 202 176 203 
202 180 176 175 167 176 167 198 176 
176 198 203 28 34 46 27 33 34 
46 34 44 34 33 44 62 42 57 
25 42 53 50 30 58 53 58 30 
25 53 30 165 164 177 164 136 150 
134 136 164 85 82 104 85 84 82 
84 67 82 67 60 82 152 151 136 
136 116 152 104 82 99 67 57 60 
187 190 179 172 179 190 172 171 179 
152 171 172 82 88 99 78 88 82 
60 78 82 57 48 60 78 77 88 
78 55 77 55 58 77 102 114 107 
95 102 107 95 96 102 96 83 102 
83 75 102 83 72 75 146 159 157 
186 181 185 153 143 154 109 98 133 
109 133 130 130 133 146 146 133 144 
153 154 166 130 146 137 166 144 153 
166 154 191 191 154 163 163 186 191 
186 157 181 100 110 111 111 110 122 
93 92 100 100 92 103 100 103 110 
103 112 110 110 112 131 110 131 122 
122 131 143 131 141 143 103 92 109 
103 109 112 131 112 109 131 109 130 
131 130 141 130 137 141 137 163 141 
143 141 154 141 163 154 137 146 157 
137 157 186 163 137 186 72 51 75 
37 51 72 43 52 51 29 43 51 
16 43 14 90 96 95 90 83 96 
56 37 72 37 29 51 17 29 37 
29 14 43 106 128 132 21 37 56 
21 17 37 36 21 56 14 12 16 
12 15 16 18 10 14 10 8 14 
8 15 12 14 8 12 7 8 10 
7 6 8 22 18 21 11 9 18 
5 11 22 7 0 6 1 3 11 
5 1 11 6 0 5 0 1 5 
16 35 43 36 22 21 11 18 22 
245 243 248 240 248 243 240 242 248 
208 223 216 217 208 216 199 208 200 
156 165 199 188 156 199 139 156 188 
139 127 156 74 71 86 65 67 71 
251 247 250 248 247 251 248 242 247 
223 224 228 223 218 224 208 218 223 
210 215 218 210 194 215 210 199 194 
194 195 215 62 65 66 68 62 66 
215 195 211 195 161 211 195 162 161 
162 195 171 120 162 155 99 87 108 
42 62 68 91 134 127 208 210 218 
208 199 210 199 165 194 179 171 195 
53 42 68 77 87 88 76 79 87 
102 69 94 142 124 159 4 7 10 
18 17 21 106 93 113 106 113 128 
128 143 132 18 14 17 133 106 132 
133 132 153 132 143 153 17 14 29 
98 106 133 133 153 144 148 144 166 
148 166 191 75 69 102 142 146 144 
142 144 148 146 142 159 157 159 181 
186 185 191 93 100 111 113 93 111 
125 111 122 128 125 122 143 128 122 
98 92 106 92 93 106 92 98 109 
53 68 76 58 53 76 77 58 76 
200 208 217 156 127 165 127 134 165 
85 134 91 86 85 91 84 85 86 
86 71 84 71 67 84 165 177 194 
134 85 116 85 104 116 62 67 65 
187 195 194 187 179 195 99 120 116 
104 99 116 62 57 67 171 155 162 
152 120 155 116 120 152 120 99 108 
88 87 99 76 87 77 165 134 164 
134 116 136 177 187 194 152 155 171 
196 206 184 206 196 192 192 138 189 
138 192 196 135 138 196 138 149 189 
129 149 138 138 126 129 135 126 138 
107 126 160 107 114 126 35 45 52 
43 35 52 160 126 135 81 72 83 
81 56 72 35 41 45 16 26 35 
54 56 81 41 56 54 41 36 56 
26 36 41 35 26 41 26 13 22 
16 13 26 15 13 16 26 22 36 
8 13 15 6 13 8 13 5 22 
13 6 5 229 225 238 220 225 229 
222 220 229 238 225 234 188 183 158 
139 188 158 158 147 139 212 168 207 
52 45 59 59 45 63 45 64 63 
206 192 185 206 212 209 59 63 61 
89 97 119 119 97 118 114 119 129 
124 119 118 185 212 206 209 212 213 
213 212 214 97 101 118 101 140 118 
159 124 118 118 140 169 118 169 159 
185 169 212 169 168 212 214 212 207 
214 207 222 226 214 222 140 101 147 
249 245 251 249 243 245 239 243 249 
242 236 239 236 242 240 230 228 227 
91 74 86 250 249 251 244 239 246 
242 239 244 224 227 228 218 215 219 
215 213 219 61 63 65 65 71 61 
247 244 250 215 211 213 65 63 66 
145 123 162 108 145 120 242 244 247 
162 120 145 95 108 87 68 80 76 
68 66 80 66 70 80 211 161 184 
162 123 161 123 160 161 80 90 79 
76 80 79 237 235 241 237 231 235 
217 216 231 221 217 231 183 217 221 
183 200 217 115 139 147 121 139 115 
105 121 115 235 240 241 235 233 240 
233 236 240 235 228 233 228 230 233 
231 228 235 231 223 228 231 216 223 
183 188 200 188 199 200 121 127 139 
121 91 127 105 91 121 245 248 251 
172 190 182 189 185 192 94 119 114 
129 119 124 126 114 129 149 148 189 
189 148 191 52 59 51 51 59 69 
51 69 75 114 102 94 129 124 142 
149 129 142 149 142 148 185 189 191 
59 61 69 61 73 69 69 73 94 
94 73 89 94 89 119 181 159 169 
181 169 185 2 0 7 0 2 1 
1 2 3 2 4 3 2 7 4 
3 4 9 11 3 9 4 10 9 
9 10 18 113 111 125 128 113 125 
151 152 172 182 201 197 175 172 182 
32 48 57 205 197 202 178 197 205 
178 182 197 173 182 178 173 175 182 
173 167 175 39 49 55 48 39 55 
32 39 48 39 28 49 32 28 39 
19 20 32 205 203 204 198 204 203 
167 173 198 49 46 47 28 46 49 
19 23 20 46 40 47 40 31 47 
20 27 28 23 27 20 151 172 175 
202 197 201 32 20 28 27 34 28 
211 206 209 211 184 206 107 123 145 
108 107 145 66 63 70 63 64 70 
135 196 184 160 135 184 123 107 160 
108 95 107 79 95 87 79 90 95 
81 83 90 80 81 90 70 81 80 
70 54 81 54 70 64 64 41 54 
45 41 64 225 237 234 225 221 237 
220 221 225 220 183 221 193 183 220 
158 183 193 117 115 147 117 105 115 
241 240 243 239 238 243 237 241 243 
238 234 243 234 237 243 230 232 236 
161 160 184 221 231 237 230 236 233 
219 224 218 244 246 250 211 209 213 
213 214 219 219 214 227 227 214 226 
219 227 224 246 249 250 61 71 74 
61 74 73 73 74 89 89 74 97 
97 74 91 140 158 169 227 226 230 
226 232 230 236 238 239 246 239 249 
97 91 101 91 105 101 147 158 140 
169 158 168 158 193 168 207 220 222 
226 222 232 222 229 232 229 238 232 
236 232 238 101 105 117 101 117 147 
168 193 207 207 193 220 
POINT_DATA 252
SCALARS k float
LOOKUP_TABLE default
1.36507 1.20502 2.13354 0.698329 -0.143757 0.0762805 -0.126296 0.664255 -0.643099 
0.0224441 -0.387923 0.150191 0.225501 0.349969 0.0292535 0.318565 -0.0452269 0.310621 
-0.380356 0.495975 -0.0703439 0.480253 0.984301 0.326047 0.261323 -0.0300372 -0.450845 
0.427389 0.0412264 0.105567 -0.209282 -0.199123 0.435496 1.44015 0.277186 0.000482202 
-0.362885 -0.3 2.56922 0.131654 -0.230662 -0.52077 -0.0487125 0.331391 1.25468 
0.195218 0.0317372 0.204392 -0.169748 -0.31672 -0.695142 -0.622402 -0.239505 -0.0118699 
0.294644 -0.558204 -0.807591 -0.100931 -0.365083 -0.563102 -0.0394754 0.799585 -0.0329927 
-0.951154 0.24048 -0.262762 -0.553154 -0.426029 -0.152784 0.551465 -0.560054 0.749676 
-0.281153 -0.17653 0.0417275 0.106494 -1.22568 0.117944 -0.184101 0.308899 -0.306664 
-0.71791 0.164564 -0.206531 0.901356 -0.102181 -0.0207217 -0.240391 0.372401 0.243461 
0.243744 -1.16661 0.62259 0.15029 -0.0882101 -0.435766 1.24966 -1.29181 1.73392 
-0.489354 0.652275 1.0926 0.146563 1.10372 -0.214232 0.714908 0.272904 -1.13001 
0.051938 -0.329457 0.424655 1.61807 -0.127867 0.600687 -1.02836 0.205721 -0.770522 
0.147811 0.259223 -0.260304 -0.548719 0.397498 0.311403 0.129704 -0.245903 0.993161 
0.674492 0.0495254 -0.215706 -0.590771 -1.03692 0.293733 1.23195 -0.991143 -0.452941 
-0.0882735 -0.499892 0.857427 0.0531369 0.51394 -0.218669 -0.326653 -1.3276 -0.177289 
-1.4029 -0.0217661 -0.120413 0.863249 -0.576331 -0.505962 0.616438 0.0383754 -0.204245 
-0.700003 -0.042933 -0.0391628 -0.0450051 0.359975 -0.859543 0.011843 0.530831 0.694792 
-0.514347 0.472268 -0.0163054 -0.481494 -0.619197 0.55731 0.0658209 -0.943307 0.954237 
0.60593 -1.54508 0.404799 0.176707 -0.715743 0.672387 -0.139359 0.404036 0.15844 
0.0665111 0.192018 -0.724416 0.339336 -0.00959218 -0.853227 0.458899 -0.252079 -1.21489 
-0.396413 -1.60087 0.0907246 -1.01105 0.270648 -0.609139 -0.972523 -0.158823 -0.374443 
1.05957 -0.418043 0.34944 0.589185 -0.0656396 1.01079 3.003 0.123835 1.24025 
0.275327 0.413003 0.13609 -0.824125 0.378925 -0.63575 -1.47653 0.363798 -0.578269 
0.0556732 -0.0236479 0.904369 0.821332 -0.141176 0.240097 -0.194826 0.169885 0.636809 
0.272536 -0.165841 -0.108011 -0.844962 0.279347 -0.980614 -0.187155 -0.211179 -0.0511792 
0.313437 0.284722 -1.08378 0.513514 -0.192309 -0.961447 -0.945722 0.470932 -0.104352 
-1.28771 1.51378 1.01352 0.606844 1.22183 0.806046 1.53472 0.900108 1.07116 

FIELD FieldData 7
h 1 252 float
4.25409 7.82488 10.7867 6.50251 6.78949 3.93149 5.53575 9.28278 6.13657 
4.11459 3.47337 4.93886 5.03597 7.45916 2.97784 6.80821 -0.216413 5.26271 
4.26577 2.55689 4.5054 2.86586 4.58927 0.999718 0.0869546 1.57556 8.10912 
12.5063 1.93365 3.28686 2.57816 3.03441 4.68956 1.11372 0.990598 -0.0299693 
-2.2329 4.73752 2.23115 1.58895 8.13756 2.48697 1.16057 2.69046 2.79355 
0.106881 2.68842 -0.64481 2.17709 1.99342 -1.6945 2.67659 1.6464 1.43337 
-0.107604 1.83977 -0.0856745 3.07919 -1.13204 2.12085 1.81945 2.83565 1.24426 
0.337075 -2.87855 2.66911 -0.622129 2.28595 2.04146 2.51643 -0.266085 3.30469 
2.61579 2.16038 2.78597 5.31798 -1.00438 0.396915 2.27235 0.246169 -1.59982 
-0.443824 1.19458 3.09438 1.99315 1.09878 3.09376 -0.497159 0.526165 2.15721 
0.376349 2.8945 3.77926 -0.33748 1.10689 0.14397 1.24878 2.03665 6.09388 
1.74621 9.97619 1.1592 5.74548 1.4842 0.127535 4.06477 6.38349 -0.220764 
-0.596588 -0.583301 8.0997 14.559 3.0721 1.33886 2.78739 3.83101 0.821425 
3.08743 0.238487 0.538313 -0.632631 -0.517506 -0.196341 1.177 0.558182 2.16742 
4.27729 0.0944895 8.64727 0.547325 0.108783 3.49103 10.5259 -1.92809 1.68652 
2.32822 1.54084 1.9918 2.14186 2.15048 0.591245 5.6281 0.502917 -0.421601 
-4.85011 -0.186008 1.25621 2.74226 -1.39577 -0.843505 2.54567 0.639325 2.57892 
0.740711 -0.570813 -0.595956 -0.333897 0.543563 1.96179 1.16841 1.27003 2.32765 
0.284333 4.26705 1.58783 1.13581 0.38454 0.67223 0.953344 1.02309 3.02702 
0.117099 -0.300008 -2.81896 4.05562 -1.51143 1.60908 1.71818 -0.455649 1.01823 
1.88045 1.29879 -2.75865 3.45988 1.91573 2.9827 5.43058 1.71425 1.24261 
0.289875 -1.1041 -0.560802 3.93064 2.27845 1.98308 2.35086 2.42727 -3.12566 
2.17288 -0.62325 -0.386256 0.900924 1.35432 1.85288 1.58003 0.444935 3.57115 
0.582867 1.54 2.85265 2.23317 1.44926 1.9129 0.735089 5.06036 1.12731 
1.89776 0.805262 2.24805 0.395723 1.75897 4.05721 1.13651 2.14939 1.44702 
0.7228 3.97533 1.93942 1.46515 1.4686 -0.487211 0.981937 1.58431 0.753699 
3.06866 1.13047 1.50404 6.53517 0.933858 0.80116 0.384662 1.03661 -0.0249321 
8.16579 14.3256 3.79481 0.851494 2.20714 2.01433 3.80839 4.36339 8.23423 

kmin 1 252 float
8.50964 16.5621 22.4038 13.2344 14.0388 7.92439 11.048 19.2566 12.4378 
8.61084 7.35499 10.3332 10.3527 15.3888 5.77608 14.2303 1.3241 10.6253 
8.94155 4.64971 8.23509 5.6923 8.96992 2.65482 2.95801 4.1019 17.471 
24.6231 5.25587 6.4913 7.48498 7.84987 8.36791 1.86436 2.819 1.31181 
-0.0168773 10.1495 4.39741 3.87012 19.4045 6.20081 1.98928 5.08273 6.68851 
0.813199 6.50508 2.52363 4.46669 6.69344 0.415195 5.436 3.24083 3.65586 
0.873832 5.85763 0.940893 5.12522 -0.169702 3.55864 3.15308 4.32158 1.65995 
1.02832 -0.362655 5.19355 1.87929 3.26959 4.13716 4.52429 0.70158 4.93625 
5.90782 2.85938 3.92057 11.421 -0.428446 3.28766 6.23959 2.341 5.63035 
0.618696 2.10379 6.76132 2.48171 1.48073 4.28527 0.959314 2.80992 2.70061 
1.17 4.54623 7.9522 0.568389 1.74221 0.859187 2.36322 2.55924 11.2798 
4.61975 15.6227 2.42854 11.4643 4.1429 0.785136 6.4088 12.2636 0.0765193 
-0.302026 0.799021 14.9822 19.8177 5.44597 2.84371 5.17878 6.55069 2.28114 
5.30104 0.880004 0.698598 -0.226434 1.38401 0.477779 1.91802 0.910274 4.9459 
7.54872 1.22493 15.961 0.793727 1.36309 5.62561 21.0723 1.47916 2.73906 
3.23986 2.28487 3.96858 3.47342 4.22234 1.77715 10.3457 2.05487 1.5486 
-1.46414 0.172064 1.79861 4.79994 1.27614 1.58118 4.30956 3.42673 6.87666 
3.17182 0.0394033 0.726153 0.571626 1.70663 3.70035 2.21155 1.49612 2.37277 
1.12363 8.93295 2.56069 2.43954 1.67951 3.32091 1.53369 1.78506 4.22638 
1.39844 2.86206 1.81127 7.01608 -1.04384 4.37908 2.17637 3.74515 3.16197 
5.08042 2.33229 5.25922 6.12408 2.61885 6.02941 9.91393 4.51496 2.08689 
2.41715 1.22443 0.221844 7.0285 3.38898 6.28228 4.35594 3.34956 0.965316 
4.39457 0.419015 1.0247 3.07363 4.19036 4.34556 3.82725 2.37881 6.57599 
1.67272 3.05959 5.54418 4.66288 1.98204 5.39325 2.70784 10.8821 2.64625 
3.89372 2.26578 4.05731 1.92139 3.3746 7.1649 3.67595 4.76929 4.23719 
2.04523 9.49107 5.16752 4.54235 3.62615 1.81871 2.72263 4.19708 2.7045 
5.72137 2.56669 7.71143 12.1895 2.41958 1.17446 1.08272 2.43043 2.97797 
14.8972 33.5287 6.55263 1.8877 5.79181 3.67156 6.47101 9.42766 15.1754 

kmax 1 252 float
-0.00146235 -0.912296 -0.830299 -0.229433 -0.459825 -0.0614173 0.0234665 -0.691046 -0.16469 
-0.381672 -0.40826 -0.455487 -0.280776 -0.470515 0.179603 -0.613842 -1.75693 -0.099906 
-0.410013 0.464064 0.775708 0.0394168 0.208624 -0.655385 -2.7841 -0.950786 -1.25272 
0.38937 -1.38857 0.0824306 -2.32866 -1.78105 1.01121 0.363077 -0.837808 -1.37174 
-4.44892 -0.674406 0.0648809 -0.69223 -3.12934 -1.22688 0.331865 0.298191 -1.1014 
-0.599436 -1.12823 -3.81325 -0.112514 -2.70659 -3.80419 -0.0828178 0.0519756 -0.789127 
-1.08904 -2.17808 -1.11224 1.03317 -2.09437 0.683067 0.485818 1.34972 0.828574 
-0.354167 -5.39445 0.144676 -3.12355 1.30231 -0.0542452 0.508581 -1.23375 1.67314 
-0.676249 1.46139 1.65138 -0.785095 -1.58032 -2.49383 -1.69488 -1.84866 -8.83 
-1.50634 0.285365 -0.572565 1.50458 0.716822 1.90224 -1.95363 -1.75759 1.6138 
-0.417297 1.24278 -0.393683 -1.24335 0.471573 -0.571247 0.134335 1.51405 0.907956 
-1.12733 4.32964 -0.110141 0.0266319 -1.1745 -0.530066 1.72073 0.50341 -0.518048 
-0.89115 -1.96562 1.21722 9.30035 0.698228 -0.165983 0.396007 1.11134 -0.638286 
0.87382 -0.403029 0.378028 -1.03883 -2.41903 -0.870461 0.435977 0.206091 -0.611059 
1.00586 -1.03595 1.33357 0.300922 -1.14552 1.35645 -0.0206 -5.33535 0.633993 
1.41659 0.796801 0.0150076 0.810305 0.078614 -0.594661 0.910449 -1.04903 -2.39181 
-8.23609 -0.54408 0.71381 0.684571 -4.06768 -3.26819 0.781787 -2.14808 -1.71882 
-1.69039 -1.18103 -1.91807 -1.23942 -0.619509 0.223229 0.125273 1.04394 2.28253 
-0.554967 -0.398846 0.614969 -0.167927 -0.91043 -1.97645 0.372996 0.26111 1.82767 
-1.16424 -3.46207 -7.44918 1.09516 -1.97901 -1.16093 1.25998 -4.65644 -1.12551 
-1.31951 0.265293 -10.7765 0.795676 1.21262 -0.0640041 0.947233 -1.08646 0.398336 
-1.8374 -3.43264 -1.34345 0.832784 1.16793 -2.31612 0.345772 1.50498 -7.21663 
-0.0488235 -1.66552 -1.79721 -1.27178 -1.48173 -0.639802 -0.667187 -1.48894 0.566309 
-0.506989 0.0204123 0.161126 -0.196539 0.916492 -1.56744 -1.23766 -0.761392 -0.391635 
-0.098196 -0.655252 0.438792 -1.12994 0.143339 0.949527 -1.40292 -0.470498 -1.34316 
-0.59963 -1.54041 -1.28867 -1.61205 -0.688949 -2.79313 -0.758751 -1.02846 -1.1971 
0.415944 -0.305756 -4.70335 0.880845 -0.551864 0.427858 -0.313399 -0.357218 -3.02784 
1.43438 -4.87743 1.03698 -0.184709 -1.37753 0.357104 1.14577 -0.700867 1.29303 

hks 16 252 double
0.99951111942 1.0117390957 1.0237963749 1.0356579135 1.0473007 1.0587039769 1.0698494172 1.0807212478 1.0913063213 
1.1015941316 1.1115767779 1.1212488778 1.1306074352 1.1396516698 1.1483828141 1.1568038876 1.0014912395 1.0133057592 
1.0249091483 1.0362858004 1.0474220601 1.0583062415 1.0689286164 1.0792813767 1.0893585711 1.0991560197 1.1086712078 
1.1179031635 1.1268523214 1.1355203762 1.1439101297 1.1520253352 1.047266617 1.0590358093 1.0705040224 1.081661847 
1.0925020041 1.1030192728 1.113210399 1.1230739887 1.1326103856 1.1418215377 1.150710853 1.1592830479 1.1675439891 
1.1755005329 1.1831603615 1.1905318229 1.0253648354 1.0356227617 1.0457480376 1.0557275113 1.0655490568 1.0752016075 
1.0846751819 1.0939608992 1.1030509862 1.1119387738 1.120618683 1.1290862014 1.1373378477 1.1453711271 1.1531844766 
1.160777202 0.98532262132 0.99688382409 1.0083320178 1.0196460226 1.0308056138 1.0417917355 1.0525866952 1.0631743345 
1.07354017 1.0836715007 1.0935574786 1.1031891422 1.1125594113 1.1216630451 1.1304965673 1.1390581603 0.81445424375 
0.82760650482 0.84082613727 0.85407659329 0.86732175523 0.88052638596 0.89365654733 0.90667997635 0.91956641035 0.9322878544 
0.94481878653 0.95713629882 0.96922017461 0.98105290465 0.99261964672 1.0039081351 0.84597166675 0.85857198398 0.87127210353 
0.8840350967 0.89682405049 0.90960255027 0.92233513866 0.93498773863 0.94752803066 0.95992577579 0.97215307825 0.98418458428 
0.99599761581 1.0075722403 1.0188912802 1.0299402666 0.9408740756 0.95393759507 0.96690412049 0.97974105148 0.99241759536 
1.004905086 1.0171772541 1.029210443 1.0409837672 1.0524792106 1.0636816654 1.0745789133 1.0851615524 1.0954228754 
1.1053587058 1.1149671988 0.69238111247 0.70398604752 0.71580577934 0.72781868244 0.74000123 0.75232823571 0.76477312897 
0.77730825618 0.78990520023 0.80253510966 0.81516902884 0.82777822079 0.84033447457 0.85281039045 0.86517963674 0.8774171737 
0.85273115875 0.86482021218 0.87696247278 0.88913006396 0.90129497875 0.91342942243 0.92550614524 0.93749875598 0.94938200841 
0.9611320533 0.97272665064 0.98414533826 0.99536955467 1.0063827162 1.0171702494 1.0277195828 0.74187018091 0.75560079365 
0.76944697169 0.78336951783 0.79732955391 0.8112889687 0.82521083644 0.83905979637 0.85280238538 0.86640731743 0.87984570517 
0.89309122162 0.90612020142 0.91891168361 0.93144739941 0.94371171043 0.82047226959 0.83269370693 0.84499091135 0.85733425158 
0.86969421485 0.88204172456 0.89434843983 0.9065870304 0.91873142154 0.93075700426 0.94264080795 0.95436163339 0.96590014594 
0.97723892952 0.98836250362 0.99925730619 0.62548670044 0.63127817786 0.63749653621 0.64414231228 0.65121182326 0.65869714991 
0.66658620369 0.67486287573 0.68350726322 0.6924959661 0.70180244519 0.71139743113 0.7212493722 0.73132490841 0.7415893589 
0.75200721013 0.62578204772 0.63601083519 0.64651659151 0.6572844727 0.66829690432 0.67953376244 0.69097260762 0.70258896538 
0.71435664445 0.72624808332 0.73823471486 0.75028733842 0.76237648907 0.77447279433 0.78654730972 0.79857182577 0.53114033619 
0.53922860627 0.54757028949 0.55616070829 0.56499308087 0.57405853802 0.58334617722 0.59284315188 0.60253479283 0.61240475802 
0.62243520598 0.6326069881 0.64289985464 0.65329266914 0.66376362666 0.67429047101 0.65231838421 0.65801602557 0.66417063714 
0.67078203833 0.67784547343 0.6853515878 0.69328650012 0.70163196893 0.71036564892 0.71946142899 0.72888984185 0.73861853249 
0.7486127713 0.75883599658 0.76925037074 0.77981733487 0.54751272264 0.5514469245 0.55571834684 0.56033883205 0.56531704466 
0.57065824374 0.57636412269 0.58243272064 0.58885840796 0.59563194557 0.6027406158 0.61016841995 0.61789633591 0.62590262735 
0.63416319474 0.64265195742 0.54489121322 0.54521618879 0.54598198851 0.54720247651 0.54888776474 0.55104404005 0.55367346216 
0.55677413501 0.56034015188 0.56436171217 0.56882530603 0.57371396054 0.57900753969 0.5846830889 0.59071521375 0.59707648219 
0.57960042385 0.5909620552 0.60256063158 0.61437325961 0.62637570701 0.63854263305 0.65084783232 0.66326448655 0.67576541897 
0.68832334582 0.70091111961 0.71350195949 0.72606966431 0.73858880503 0.75103489381 0.76338452799 0.5627131963 0.56511588275 
0.56785795459 0.57094693221 0.57438746825 0.57818114156 0.58232630377 0.58681798456 0.59164785994 0.59680428605 0.60227239852 
0.60803427543 0.61406915959 0.62035373399 0.62686244251 0.63356784663 0.58557139341 0.59104808736 0.59680541581 0.60284126974 
0.60915073107 0.61572601666 0.62255647638 0.62962864667 0.63692635935 0.64443090377 0.65212123857 0.65997424773 0.6679650345 
0.67606724522 0.68425341451 0.69249532281 0.48206966117 0.48475623134 0.4877872607 0.49116967943 0.49490718572 0.49900020544 
0.50344591456 0.50823832244 0.51336841214 0.51882433251 0.52459163516 0.53065354859 0.53699128046 0.54358433899 0.55041086415 
0.55744795952 0.5439868717 0.55386150132 0.56409765486 0.57466917048 0.5855474156 0.59670168911 0.60809965289 0.61970778003 
0.63149180697 0.64341717712 0.65544946409 0.66755476409 0.67970004879 0.69185347166 0.70398462346 0.71606473456 0.63317609134 
0.64083531822 0.64871016314 0.65678704161 0.66505012754 0.6734814843 0.68206123802 0.69076778924 0.69957805717 0.70846775045 
0.71741165691 0.72638394489 0.73535846817 0.74430906698 0.75320985784 0.76203550582 0.59214566227 0.59581566619 0.5998195028 
0.60415657668 0.60882352952 0.61381416074 0.61911939713 0.62472731419 0.6306232101 0.63678973164 0.64320704951 0.64985307887 
0.65670373951 0.66373324871 0.67091443912 0.67821909329 0.50137836934 0.50302992161 0.50483582362 0.50681199505 0.50897367627 
0.5113350686 0.5139089829 0.51670650707 0.51973670264 0.52300633969 0.52651967803 0.53027830102 0.53428100658 0.53852375796 
0.54299969499 0.5476992042 0.46876083641 0.47370667682 0.47894070338 0.48446158431 0.49026577232 0.49634754974 0.50269911004 