# vtk DataFile Version 5.1
vtk output
ASCII
DATASET POLYDATA
POINTS 252 float
-0.176231 -0.423741 -0.076473 -0.246257 -0.407222 0.002157 -0.306893 -0.371241 0.075494 
-0.008728 -0.412845 -0.148752 -0.262204 -0.375867 -0.129099 -0.400696 -0.373373 -0.047938 
-0.447042 -0.363847 0.059512 -0.120748 -0.390582 0.056144 -0.59547 -0.323494 -0.011802 
-0.613097 -0.277814 0.061755 0.121459 -0.418548 -0.034567 -0.003278 -0.434123 -0.016853 
-0.469511 -0.319344 -0.136558 -0.233308 -0.329056 -0.171089 -0.635565 -0.275129 -0.061229 
-0.043858 -0.332998 -0.206127 -0.392127 -0.308388 -0.168433 -0.309872 -0.309444 0.136244 
0.093805 -0.370863 0.068111 0.319553 -0.348125 -0.051007 0.182099 -0.35552 -0.18217 
-0.731086 -0.21493 0.025631 0.25408 -0.342192 0.045213 0.226697 -0.384353 -0.11433 
-0.073504 -0.309445 0.125959 -0.444301 -0.228785 -0.171861 -0.538638 -0.262478 0.114 
-0.791997 -0.12328 0.097988 0.056209 -0.257558 0.143469 -0.626083 -0.213561 -0.12278 
-0.250316 -0.20293 0.18477 -0.07212 -0.275002 -0.217726 -0.596847 -0.113189 0.139563 
-0.794739 -0.145297 -0.042673 0.218988 -0.268129 0.109964 -0.392542 -0.192968 0.161509 
-0.670751 -0.174724 0.131433 0.420922 -0.24467 -0.168907 0.618765 -0.324159 0.403735 
0.608403 -0.30389 0.463713 -0.304004 -0.229704 -0.202428 0.582545 -0.304827 0.394158 
0.451327 -0.256147 -0.068441 -0.615194 -0.134759 -0.146211 0.750151 -0.325036 0.179574 
-0.832896 -0.071493 -0.015588 -0.186466 -0.211191 -0.199126 0.398575 -0.24668 0.051573 
-0.50112 -0.158744 0.132019 0.536578 -0.24267 0.442301 0.767397 -0.321071 0.292451 
-0.670941 -0.038381 0.165473 -0.410118 -0.100507 -0.161031 -0.29193 -0.076862 -0.178401 
-0.304922 -0.100566 0.186931 -0.045949 -0.159716 -0.230033 -0.783497 -0.056984 0.172065 
0.696319 -0.290653 0.277629 0.131772 -0.25664 -0.243189 0.694695 -0.255891 0.295767 
-0.176231 -0.234974 0.168771 0.271085 -0.225443 -0.244938 0.79255 -0.276218 0.277041 
-0.766414 -0.08027 -0.142869 0.671734 -0.252611 0.411772 -0.837903 0.026894 -0.057792 
0.233655 -0.306507 -0.214306 -0.141578 -0.12887 -0.172976 -0.486966 -0.019371 0.013609 
0.779599 -0.248336 -0.023576 -0.554955 -0.034984 -0.09932 0.832551 -0.297541 0.132013 
-0.829471 -0.036755 0.135171 -0.525915 -0.057316 0.095163 -0.820833 0.010713 -0.161236 
0.547995 -0.135262 0.012621 -0.806402 0.00176 0.116488 0.289608 -0.104684 -0.244305 
-0.707309 0.076346 0.149273 -0.501507 -0.132548 -0.137763 0.744909 -0.259053 0.118798 
0.756275 -0.239564 0.244629 -0.792916 0.01242 -0.105399 -0.305452 -0.006712 0.148981 
-0.714304 -0.032593 -0.156504 -0.835707 0.049465 0.078644 0.528239 -0.174318 -0.108763 
0.748226 -0.178989 0.003613 -0.375117 0.0569 -0.021502 0.527328 -0.125832 -0.175126 
-0.839089 -0.012525 -0.127968 -0.062578 -0.10677 0.16948 -0.102876 -0.020517 0.189907 
-0.386688 0.011867 -0.094225 -0.016664 -0.044607 0.146965 0.82773 -0.212507 -0.043373 
0.804816 -0.232509 0.131104 0.204183 -0.147129 0.129127 -0.081548 -0.069247 -0.15104 
0.465934 -0.054288 0.114077 -0.036575 -0.030896 -0.175711 -0.412033 -0.009222 0.118113 
0.370168 -0.120738 0.112949 0.452739 -0.148695 -0.22088 -0.576467 0.065363 -0.072705 
-0.609543 0.037599 0.130336 -0.77535 0.081028 -0.089499 0.13709 -0.048765 -0.195872 
-0.186646 -0.02913 -0.152809 -0.550721 0.03942 0.057912 -0.293711 0.045301 0.099495 
-0.67316 0.077209 -0.130257 -0.190797 0.052708 0.057168 -0.012418 0.041214 0.088928 
0.054102 0.053159 -0.129038 -0.065214 0.045774 0.128415 -0.186697 0.103418 0.135863 
-0.719524 0.14965 -0.044977 -0.201037 0.010735 0.178447 -0.5297 0.127322 0.014463 
0.757443 -0.052773 -0.047749 -0.749611 0.141348 0.039617 -0.589473 0.146387 0.07004 
0.713701 -0.068495 -0.160888 0.17837 -0.034347 0.131754 -0.206421 0.064793 -0.092762 
0.839386 -0.182282 0.018125 -0.230765 0.073972 -0.043674 -0.035133 0.074549 -0.056099 
0.767558 -0.037143 -0.147123 -0.134675 0.102278 0.015609 -0.133844 0.076525 0.074945 
-0.592765 0.190546 0.001416 0.583787 -0.078649 -0.092964 0.230336 0.010512 -0.233526 
0.143043 0.10972 -0.207431 0.690482 -0.08462 -0.107361 0.092657 0.056658 0.100921 
-0.111702 0.078732 -0.111679 0.064026 0.091859 -0.014442 0.555772 0.026168 -0.209 
0.712462 -0.063743 -0.057174 -0.136149 0.092709 0.20256 -0.134158 0.148281 0.104571 
0.217551 0.061071 0.189665 0.326604 0.023201 0.177132 0.1627 0.121199 0.130623 
0.693565 0.008633 -0.045628 0.589056 0.011264 -0.122521 0.593796 0.027257 -0.032287 
-0.204372 0.126137 0.026231 -0.094063 0.167264 0.229126 0.585209 -0.017008 0.037237 
-0.176908 0.300638 0.257536 0.39465 -0.017271 -0.261721 -0.078409 0.127065 -0.041912 
0.160714 0.159776 0.071973 -0.167381 0.170316 0.126595 -0.08087 0.181303 0.157439 
0.12953 0.150608 -0.147885 0.622878 0.106186 -0.132116 0.283199 0.102784 -0.25431 
0.200624 0.095734 0.177622 0.716854 0.061537 -0.125451 0.119569 0.084487 0.135614 
0.777875 -0.026708 -0.084994 -0.203811 0.137958 -0.03336 0.2685 0.116509 0.191633 
0.165875 0.159279 -0.212502 -0.102895 0.227099 -0.045163 -0.169038 0.224882 0.053768 
0.621475 0.100317 -0.013842 -0.151568 0.175722 -0.060628 -0.055786 0.145132 0.196208 
0.193789 0.168334 -0.008125 0.431598 0.10532 0.166776 0.158892 0.267056 0.232612 
0.653718 0.130826 -0.053131 -0.241776 0.265748 0.023204 0.116007 0.318257 -0.250142 
0.540346 0.077484 0.093881 -0.154015 0.317762 0.004255 0.16804 0.187243 -0.069921 
0.360556 0.224031 -0.237747 0.179078 0.195847 0.122908 0.490392 0.132335 -0.241696 
-0.21261 0.355453 0.213178 0.284391 0.240919 0.019273 0.448475 0.21534 0.163422 
0.343302 0.228253 0.199135 -0.124474 0.329021 0.189746 0.595572 0.165365 -0.083367 
0.591263 0.174017 0.012009 0.550127 0.155786 -0.207192 0.158878 0.328226 -0.258643 
0.531847 0.215364 -0.151666 0.465095 0.252093 -0.042786 -0.249984 0.313177 -0.024733 
-0.16851 0.399063 0.183061 0.210716 0.28308 0.126423 0.426796 0.267235 0.147187 
0.267419 0.309209 0.206235 0.42627 0.298611 0.074467 -0.300135 0.388141 0.016878 
0.376516 0.326292 -0.195753 0.161451 0.27532 -0.12605 -0.246655 0.400026 0.0623 
-0.269359 0.413144 0.198301 0.071398 0.36665 -0.196253 0.367384 0.28942 0.000696 
0.347048 0.310774 0.099549 0.263202 0.314463 0.159278 -0.209324 0.427382 -0.012228 
0.393152 0.339911 -0.119059 0.21453 0.35617 -0.170318 0.227921 0.265711 0.239912 
-0.318055 0.441406 -0.035701 -0.135994 0.360573 0.274839 0.336252 0.312443 -0.064519 
0.118725 0.308984 0.214453 0.225302 0.363647 0.237587 0.117189 0.389947 -0.191641 
-0.377827 0.416493 0.05274 0.233919 0.300163 -0.238646 0.08855 0.312439 -0.211864 
-0.202028 0.432798 0.302147 -0.289361 0.420093 0.273751 -0.155594 0.447788 0.220343 
-0.36545 0.485515 0.027697 -0.273364 0.469714 -0.032023 -0.250011 0.478481 0.205647 
0.124683 0.387456 0.184646 -8e-06 0.440707 -0.327035 0.038255 0.44351 0.23018 
0.03477 0.431538 -0.361666 -0.266527 0.48125 0.06299 0.152259 0.42404 -0.276521 
0.06801 0.447582 0.298755 -0.104742 0.472149 -0.31907 0.010874 0.484418 -0.397944 
-0.097394 0.50328 -0.3875 0.05577 0.483517 -0.285534 0.076246 0.486084 0.210988 
-0.048555 0.454146 0.248037 0.077622 0.505643 0.298196 -0.062773 0.500829 0.200941 
-0.005322 0.498068 -0.287847 0.155896 0.444904 0.236637 -0.032905 0.519128 0.31211 
0.075675 0.479354 -0.358541 -0.023664 0.553029 -0.339252 0.019572 0.549738 0.223611 

POLYGONS 501 1500
OFFSETS vtktypeint64
0 3 6 9 12 15 18 21 24 
27 30 33 36 39 42 45 48 51 
54 57 60 63 66 69 72 75 78 
81 84 87 90 93 96 99 102 105 
108 111 114 117 120 123 126 129 132 
135 138 141 144 147 150 153 156 159 
162 165 168 171 174 177 180 183 186 
189 192 195 198 201 204 207 210 213 
216 219 222 225 228 231 234 237 240 
243 246 249 252 255 258 261 264 267 
270 273 276 279 282 285 288 291 294 
297 300 303 306 309 312 315 318 321 
324 327 330 333 336 339 342 345 348 
351 354 357 360 363 366 369 372 375 
378 381 384 387 390 393 396 399 402 
405 408 411 414 417 420 423 426 429 
432 435 438 441 444 447 450 453 456 
459 462 465 468 471 474 477 480 483 
486 489 492 495 498 501 504 507 510 
513 516 519 522 525 528 531 534 537 
540 543 546 549 552 555 558 561 564 
567 570 573 576 579 582 585 588 591 
594 597 600 603 606 609 612 615 618 
621 624 627 630 633 636 639 642 645 
648 651 654 657 660 663 666 669 672 
675 678 681 684 687 690 693 696 699 
702 705 708 711 714 717 720 723 726 
729 732 735 738 741 744 747 750 753 
756 759 762 765 768 771 774 777 780 
783 786 789 792 795 798 801 804 807 
810 813 816 819 822 825 828 831 834 
837 840 843 846 849 852 855 858 861 
864 867 870 873 876 879 882 885 888 
891 894 897 900 903 906 909 912 915 
918 921 924 927 930 933 936 939 942 
945 948 951 954 957 960 963 966 969 
972 975 978 981 984 987 990 993 996 
999 1002 1005 1008 1011 1014 1017 1020 1023 
1026 1029 1032 1035 1038 1041 1044 1047 1050 
1053 1056 1059 1062 1065 1068 1071 1074 1077 
1080 1083 1086 1089 1092 1095 1098 1101 1104 
1107 1110 1113 1116 1119 1122 1125 1128 1131 
1134 1137 1140 1143 1146 1149 1152 1155 1158 
1161 1164 1167 1170 1173 1176 1179 1182 1185 
1188 1191 1194 1197 1200 1203 1206 1209 1212 
1215 1218 1221 1224 1227 1230 1233 1236 1239 
1242 1245 1248 1251 1254 1257 1260 1263 1266 
1269 1272 1275 1278 1281 1284 1287 1290 1293 
1296 1299 1302 1305 1308 1311 1314 1317 1320 
1323 1326 1329 1332 1335 1338 1341 1344 1347 
1350 1353 1356 1359 1362 1365 1368 1371 1374 
1377 1380 1383 1386 1389 1392 1395 1398 1401 
1404 1407 1410 1413 1416 1419 1422 1425 1428 
1431 1434 1437 1440 1443 1446 1449 1452 1455 
1458 1461 1464 1467 1470 1473 1476 1479 1482 
1485 1488 1491 1494 1497 1500 
CONNECTIVITY vtktypeint64
245 248 251 81 59 64 237 215 244 
244 215 220 220 247 244 243 233 237 
245 243 248 248 243 237 226 225 230 
244 247 251 248 244 251 57 38 41 
57 41 59 64 50 62 127 131 150 
41 49 59 59 49 64 248 237 244 
38 50 39 39 50 64 38 39 41 
49 41 39 39 64 49 61 77 154 
103 61 154 140 89 103 77 55 107 
58 55 77 66 61 103 37 66 103 
55 46 67 31 46 55 61 58 77 
58 31 55 58 15 31 15 58 66 
66 58 61 20 15 66 250 238 246 
246 241 250 236 249 241 232 246 238 
224 246 232 194 234 249 194 249 236 
179 232 234 179 224 232 179 234 194 
240 238 250 239 240 250 241 249 250 
249 239 250 239 234 240 240 234 238 
234 239 249 238 234 232 4 12 16 
15 4 13 3 4 15 208 241 246 
208 221 241 241 221 236 221 214 236 
223 236 214 224 208 246 223 194 236 
183 223 204 168 179 194 193 183 204 
193 185 183 159 224 179 179 168 159 
168 194 223 168 223 183 135 168 161 
134 135 161 161 168 183 154 134 161 
185 161 183 185 154 161 140 154 185 
193 140 185 77 134 154 103 154 140 
55 100 107 77 107 134 205 214 221 
208 205 221 214 205 218 204 214 213 
214 218 213 116 118 142 146 176 184 
190 143 157 72 56 76 56 78 76 
91 94 92 54 92 118 118 92 142 
83 54 118 51 105 78 124 145 144 
92 94 115 145 99 175 144 145 167 
162 144 167 164 124 144 146 144 162 
92 115 173 142 92 151 151 92 173 
142 151 153 116 142 153 145 175 167 
146 162 176 116 153 186 116 186 157 
175 188 189 167 175 189 167 189 215 
162 167 176 167 215 176 184 176 219 
173 158 190 189 188 200 215 189 201 
219 231 184 157 186 190 190 186 198 
195 204 213 193 204 195 205 208 224 
224 182 205 159 182 224 160 193 195 
160 195 191 168 135 159 140 193 160 
148 140 160 123 148 160 163 123 160 
129 123 163 135 114 159 134 114 135 
133 140 148 123 136 148 107 100 114 
107 114 134 89 140 133 53 125 108 
98 67 108 84 82 111 204 223 214 
105 73 109 68 101 88 87 80 96 
45 85 65 45 72 85 73 68 109 
47 75 99 69 80 87 71 44 69 
45 27 72 33 27 45 21 27 33 
34 22 47 22 19 47 21 9 27 
21 8 9 18 10 22 10 19 22 
6 26 9 8 6 9 6 1 2 
2 1 7 7 11 18 11 10 18 
229 216 228 235 212 229 216 222 228 
203 222 216 197 216 229 68 104 109 
87 96 126 126 71 95 71 69 95 
1 6 5 137 124 164 175 99 180 
99 152 180 146 164 144 105 122 78 
104 119 109 99 75 152 113 128 130 
127 112 131 88 110 112 88 101 110 
122 109 119 121 78 122 117 121 122 
139 137 164 128 113 137 137 139 128 
113 130 115 115 130 131 130 170 150 
122 119 132 117 122 132 180 152 171 
139 164 156 139 156 174 178 150 170 
180 171 192 174 156 184 187 174 184 
184 199 187 180 192 188 188 192 200 
200 192 196 200 196 202 187 199 211 
187 211 210 170 181 206 178 170 206 
203 178 206 209 210 202 206 181 235 
181 212 235 222 203 206 105 109 122 
110 83 118 131 116 157 112 116 131 
112 110 116 110 118 116 94 113 115 
113 94 137 94 124 137 102 145 124 
145 102 99 85 78 121 85 76 78 
101 83 110 54 83 101 94 97 124 
94 91 97 97 102 124 47 99 102 
32 73 105 51 32 105 225 153 217 
153 225 226 225 217 227 217 190 227 
219 237 233 176 215 237 219 176 237 
215 201 220 153 226 186 151 217 153 
151 173 217 64 62 81 44 38 57 
38 44 50 242 245 251 242 233 245 
247 242 251 225 227 230 198 230 227 
233 243 245 231 233 242 231 242 247 
230 207 226 207 230 198 198 186 207 
186 226 207 190 198 227 219 233 231 
199 184 231 220 211 247 211 231 247 
201 211 220 199 231 211 189 200 201 
80 57 59 28 97 91 28 34 97 
34 102 97 102 34 47 96 71 126 
72 27 56 173 115 143 115 131 143 
173 143 158 131 157 143 164 146 156 
188 175 180 156 146 184 158 143 190 
201 200 210 200 202 210 211 201 210 
30 17 60 17 30 35 30 54 35 
50 44 71 80 44 57 60 28 91 
30 60 92 48 35 54 50 71 62 
96 62 71 62 96 81 80 81 96 
80 59 81 60 91 92 54 30 92 
78 56 51 51 36 32 36 51 56 
48 101 73 32 48 73 48 54 101 
69 44 80 36 56 27 27 9 36 
36 26 32 26 48 32 26 35 48 
24 28 60 18 34 28 9 26 36 
26 17 35 17 24 60 17 2 24 
7 18 24 24 18 28 26 6 17 
6 2 17 2 7 24 222 235 228 
229 228 235 222 206 235 18 22 34 
127 88 112 93 88 127 152 75 133 
75 86 133 120 126 165 87 126 120 
141 87 120 87 141 136 126 95 165 
106 82 121 82 65 121 121 65 85 
79 68 88 68 70 104 79 70 68 
75 42 86 47 42 75 19 42 47 
14 21 33 14 8 21 6 8 5 
0 1 5 1 11 7 1 0 11 
111 82 106 70 111 104 98 108 138 
125 53 93 73 101 68 165 95 129 
123 69 136 69 87 136 95 123 129 
86 89 133 98 138 100 114 100 128 
100 138 128 108 125 138 125 93 127 
111 106 117 165 129 163 136 141 148 
133 148 149 114 139 159 128 138 155 
150 131 130 155 138 169 138 125 172 
138 172 169 125 166 172 147 165 177 
159 139 182 163 160 177 165 163 177 
177 160 191 191 195 196 196 195 213 
182 218 205 69 123 95 90 45 65 
70 43 111 93 79 88 52 79 93 
45 90 33 14 33 63 19 37 42 
23 37 19 29 14 63 12 14 29 
10 23 19 12 8 14 12 5 8 
4 5 12 0 5 4 0 4 3 
11 0 3 10 11 3 10 3 23 
82 90 65 42 37 86 63 33 90 
209 213 218 209 187 210 218 187 209 
209 196 213 197 203 216 169 229 212 
181 169 212 196 209 202 192 191 196 
197 178 203 166 178 197 169 172 229 
172 197 229 170 169 181 174 187 218 
174 218 182 192 177 191 192 171 177 
150 178 166 172 166 197 170 155 169 
130 155 170 139 174 182 149 147 171 
152 149 171 171 147 177 125 127 166 
155 130 128 114 128 139 141 149 148 
141 147 149 133 149 152 147 120 165 
141 120 147 111 117 132 104 111 132 
104 132 119 106 121 117 37 103 89 
86 37 89 82 74 90 74 82 84 
63 74 84 43 84 111 20 3 15 
67 98 55 23 3 20 13 4 16 
15 13 31 13 46 31 13 40 46 
13 16 40 16 25 40 16 12 25 
12 43 25 12 29 43 23 20 37 
20 66 37 40 25 53 25 43 79 
29 63 43 40 53 46 25 52 53 
25 79 52 79 43 70 43 63 84 
63 90 74 55 98 100 46 108 67 
46 53 108 53 52 93 173 190 217 
166 127 150 76 85 72 
POINT_DATA 252
SCALARS k float
LOOKUP_TABLE default
0.0967851 0.0164019 0.029956 0.193221 0.00431716 0.0126148 0.196985 0.0141239 0.253656 
0.0377992 0.106918 0.147697 0.142816 -0.0607979 0.0623561 0.0613934 0.102024 0.0803258 
0.0844687 0.129107 0.0546914 0.0925607 0.118562 0.152571 0.00693053 -0.0501542 -0.0260509 
0.131078 0.0433552 -0.0292762 0.0866067 0.0204811 -0.124515 0.189314 0.0503392 0.0131389 
-0.0126296 0.123923 0.113552 1.72118 0.11118 0.531146 0.100608 -0.157893 0.126339 
0.0660648 -0.172858 0.114342 -0.19636 3.48803 0.415368 0.0956795 0.0606892 0.106891 
0.081056 0.0536647 0.615981 -0.260648 0.0536309 -0.480305 -0.00251186 0.0485496 0.438802 
0.0624675 0.467626 0.102118 0.103389 -0.0379152 -1.5389 0.377915 -0.190078 0.603467 
0.561734 -0.804535 2.23244 0.259468 0.046181 -0.0668908 0.437336 -0.528423 -0.650767 
0.0204153 -0.880289 -0.0275362 -0.323925 0.472002 0.136772 -0.893725 0.328517 0.138618 
0.105629 -0.0619999 -0.375387 0.164898 -0.230502 0.628203 -0.504674 -0.0146271 0.208515 
0.074771 -0.203101 0.105058 -0.0719296 0.118774 -0.268175 0.0628425 0.454312 -0.0809845 
-0.0295713 -0.59051 -0.378098 0.423038 0.180496 -0.472338 -0.644383 -1.32569 -1.51942 
0.208822 -0.231904 1.08005 -0.308247 0.31097 0.250161 0.584103 -0.28709 -0.2901 
-0.0662408 -1.09383 -1.02755 0.6255 -0.513035 -2.14418 1.30524 0.183372 -0.049364 
0.107122 -0.349375 -0.873748 -0.302855 -0.421668 0.152906 -0.778121 -0.33175 -0.0187803 
0.180815 0.0605139 -0.652125 -0.203692 -2.35114 -1.25123 -0.796486 0.0249047 0.172202 
-0.384617 0.0600615 -0.593516 -0.254144 -0.0113012 0.164713 -0.744667 -0.81407 0.0762904 
-0.31034 0.346475 0.505742 0.0137004 -0.605442 -0.102863 -0.513743 0.218343 0.263473 
-0.489348 -0.275156 0.394354 0.0790204 0.0533991 -0.315013 -0.0141156 -0.18802 -0.35137 
0.0621589 0.0699929 -0.406987 -0.0536623 -0.63009 0.13437 -1.09635 -0.239312 0.223126 
-0.0330027 -0.35011 -0.0747442 0.08732 0.273623 -0.225729 0.0397149 -0.205881 -0.27777 
0.26034 -0.403671 0.0848621 -0.580551 0.392123 -0.858059 0.381743 -0.232659 -0.301449 
1.02246 0.12337 -0.604131 -0.0209996 -0.646996 0.278099 0.4198 -0.814846 -0.0252805 
0.556487 0.249218 -0.132982 -0.141762 0.19325 0.0553963 2.42491 -0.674515 -0.480702 
1.20905 1.92803 1.01398 1.852 0.816419 1.94921 -0.304055 -0.741209 -1.12024 
0.0177556 1.47114 -0.052483 -0.246998 2.346 0.755995 2.20322 -0.0575002 -0.188254 
1.18112 0.644914 2.40987 -0.448603 0.000309348 2.05145 0.416546 1.50756 1.23117 

FIELD FieldData 7
h 1 252 float
5.58339 4.8843 1.92589 4.43679 3.0869 6.03113 3.8501 1.91692 7.12201 
3.59056 5.54727 4.87642 3.30188 1.2194 5.37073 1.63171 1.80518 0.697589 
1.46717 5.50096 3.1408 6.60254 2.63519 5.99501 0.906824 0.275207 0.637629 
4.53582 0.627753 3.39611 0.834359 0.641855 0.170678 5.78641 0.59017 0.756615 
1.86933 3.40882 -0.361691 4.08974 0.462874 -2.14201 5.18797 0.515406 1.28792 
8.6102 0.367146 1.12018 0.0325558 0.691841 17.2429 1.32775 0.42578 0.65823 
0.920088 0.394181 3.22273 -2.88745 0.722898 11.4559 0.882905 0.683419 0.0939471 
3.05579 0.593013 9.81637 1.54384 0.154249 -0.812713 1.67124 0.167813 3.29344 
3.72431 -0.66968 2.43295 1.89634 5.57895 0.520027 4.41412 0.230833 -5.09635 
0.730631 3.74305 0.413493 1.89332 10.1654 4.4858 -15.7112 0.686311 1.59733 
1.83998 0.79779 0.912982 0.301438 0.660436 4.55787 -0.235377 0.476166 0.0334306 
0.819533 0.520873 0.509007 0.583506 1.06557 1.20747 0.408499 6.48842 0.278018 
0.631262 0.556076 2.1881 2.14141 -0.884068 0.143755 0.458509 1.41806 0.82996 
7.71709 0.869662 0.340651 -0.096953 8.73858 4.26261 0.61132 0.537289 0.425148 
-0.378045 0.391684 -1.82978 4.222 -0.261765 -0.930966 2.90376 3.33847 0.461675 
0.48672 -0.145337 0.53565 0.50318 -2.66134 1.22475 -4.25923 0.797601 -0.829426 
0.995803 0.821828 -0.672848 0.364559 0.710869 1.2027 -0.99896 0.401592 1.76236 
-0.573618 0.81894 -1.19262 -1.77623 -1.79296 1.67916 -0.618664 2.44564 0.599723 
0.382118 3.33335 0.548793 -0.110956 0.346454 0.817757 0.2408 1.98167 -0.510432 
1.18569 0.107991 2.93905 -2.16022 0.950009 1.37638 -0.0696134 0.800126 -0.277881 
1.62168 1.20626 -1.60528 1.03157 -4.39042 0.870709 -2.80422 -0.231406 2.60831 
1.71925 1.82226 2.60752 3.36247 2.71718 -0.779616 2.26218 0.662303 -1.53091 
0.256067 -0.238272 2.11186 2.80293 -0.324168 -1.8052 3.21833 -0.386781 0.272584 
-6.2496 -0.129557 -0.680127 -0.251276 0.811235 1.74901 -0.0699456 -0.0263425 0.931913 
-1.23427 1.27861 1.11 -0.782406 3.06164 1.62788 2.82465 1.55354 -0.0338358 
-0.167919 1.00992 1.45353 0.600534 -0.508988 0.552858 -0.106962 -0.549648 -3.11351 
-0.611249 0.959725 0.186974 0.757558 1.17518 0.40098 0.438502 0.735368 -2.06777 
6.2259 1.41027 0.252731 -1.66813 -1.02587 1.57753 0.703622 0.48177 0.148298 

kmin 1 252 float
9.95386 8.70607 2.92401 7.83732 5.42443 11.1296 6.48305 2.88526 13.4628 
5.98569 9.74066 8.50801 6.05744 2.10409 10.2836 2.69066 3.13416 1.00164 
1.99721 9.63025 5.37263 11.8732 4.08656 10.733 1.10973 0.534457 1.08568 
7.7787 0.709589 6.3901 1.02596 0.908026 0.734175 10.6392 0.813212 0.868888 
3.21955 5.76074 -0.265926 9.51283 0.797214 -1.47109 9.14121 1.22795 2.17947 
13.5121 0.629007 1.31451 0.582467 3.35964 38.1917 2.8368 0.801959 1.22662 
1.28115 0.572482 6.0428 -1.45916 0.953055 28.5061 1.08946 0.825392 0.814411 
5.71909 1.86002 10.3676 2.37467 0.34469 -0.279338 3.26599 0.609488 5.08691 
4.05977 0.283975 5.16064 2.42313 8.86778 0.806484 8.09083 0.530481 -3.1879 
1.16263 6.64711 1.01591 3.84489 11.9661 7.11757 -2.49367 2.43478 1.93446 
2.52731 1.08433 1.27789 0.816386 1.15783 6.69921 0.165919 0.605751 0.307594 
1.12496 0.809843 1.56083 0.725264 1.2972 2.65884 1.15897 10.534 0.416971 
1.35255 2.29251 4.57439 4.32059 -0.656123 0.599084 0.966748 3.60341 3.65246 
14.1425 1.19372 7.05157 0.916369 16.4495 7.53349 1.9078 0.690329 1.20735 
0.0889518 1.63235 0.225609 5.68271 0.390866 -0.702035 6.30574 5.10556 1.29274 
1.76399 0.92833 1.16781 1.24514 0.189088 1.50868 -0.616871 1.15639 1.6495 
2.09278 1.16655 1.73581 1.45025 1.1532 1.39819 0.00666065 0.539081 2.88923 
1.0894 1.23882 -0.32483 -0.166321 -1.55057 4.57458 2.14766 3.29599 1.24639 
2.17304 5.06104 1.50434 0.385774 1.26475 1.12973 1.38664 4.45172 0.547653 
2.62598 0.665636 6.56466 0.758138 1.02926 4.48844 0.703147 4.63912 2.52682 
3.02822 3.83473 -0.343303 1.33169 -1.13491 0.975561 0.760621 1.41027 4.64816 
2.57106 4.53794 4.84586 6.99227 4.25194 0.259612 3.93731 1.18843 0.111619 
2.89816 1.205 3.90924 5.44013 1.08595 -1.18765 5.59529 0.309557 1.27209 
-1.6759 0.366545 2.87235 1.4002 2.08549 4.9418 1.79481 1.80318 1.58199 
0.113636 4.09838 1.4498 0.15146 6.39396 3.17902 6.69058 2.99681 1.12728 
0.142405 2.97265 3.39024 1.34876 0.0298816 1.7301 0.222577 0.727685 0.839633 
0.526174 1.99468 1.91969 2.4242 4.24122 1.67721 1.2664 3.01822 -0.422967 
12.9086 3.59018 1.96876 -1.13599 -0.458744 3.71496 2.53371 1.37921 0.922186 

kmax 1 252 float
1.21291 1.06252 0.927771 1.03626 0.749362 0.932645 1.21715 0.948585 0.781206 
1.19543 1.35388 1.24482 0.546313 0.3347 0.45782 0.572759 0.476198 0.393537 
0.937133 1.37167 0.908966 1.33184 1.18381 1.25705 0.703922 0.015958 0.189578 
1.29295 0.545918 0.40213 0.642761 0.375683 -0.392819 0.9336 0.367128 0.644341 
0.519105 1.05691 -0.457456 -1.33335 0.128534 -2.81294 1.23473 -0.197135 0.396362 
3.70831 0.105286 0.925858 -0.517356 -1.97596 -3.70581 -0.181291 0.0496016 0.0898426 
0.559027 0.215881 0.402656 -4.31573 0.49274 -5.59432 0.676347 0.541446 -0.626517 
0.392501 -0.673998 9.26512 0.71301 -0.0361918 -1.34609 0.0764839 -0.273862 1.49996 
3.38885 -1.62333 -0.294741 1.36954 2.29013 0.23357 0.737398 -0.0688153 -7.00479 
0.298631 0.838995 -0.188924 -0.0582461 8.36458 1.85404 -28.9287 -1.06215 1.26019 
1.15265 0.511248 0.548076 -0.213511 0.163037 2.41652 -0.636673 0.34658 -0.240733 
0.51411 0.231904 -0.542818 0.441747 0.833931 -0.243899 -0.341974 2.44287 0.139064 
-0.0900226 -1.18036 -0.198198 -0.037774 -1.11201 -0.311575 -0.0497296 -0.767288 -1.99254 
1.29164 0.545605 -6.37027 -1.11027 1.02769 0.99173 -0.685161 0.384248 -0.357049 
-0.845042 -0.848983 -3.88517 2.76129 -0.914395 -1.1599 -0.498223 1.57138 -0.36939 
-0.790548 -1.219 -0.0965118 -0.238783 -5.51178 0.940812 -7.90158 0.438812 -3.30835 
-0.101175 0.47711 -3.0815 -0.721135 0.268543 1.00721 -2.00458 0.264103 0.635491 
-2.23664 0.399061 -2.06042 -3.38614 -2.03535 -1.21626 -3.38499 1.59529 -0.0469478 
-1.4088 1.60567 -0.406751 -0.607686 -0.571839 0.505784 -0.905038 -0.488374 -1.56852 
-0.254602 -0.449653 -0.686558 -5.07858 0.870754 -1.73569 -0.842374 -3.03887 -3.08258 
0.215143 -1.42222 -2.86725 0.731453 -7.64594 0.765858 -6.36906 -1.87309 0.568457 
0.867428 -0.893423 0.36918 -0.267324 1.18242 -1.81885 0.587051 0.136175 -3.17344 
-2.38602 -1.68154 0.314472 0.165731 -1.73429 -2.42274 0.841362 -1.08312 -0.726919 
-10.8233 -0.625658 -4.23261 -1.90276 -0.463024 -1.44377 -1.9347 -1.85587 0.281833 
-2.58218 -1.54116 0.770193 -1.71627 -0.270681 0.076726 -1.04128 0.110267 -1.19495 
-0.478243 -0.952807 -0.483177 -0.147692 -1.04786 -0.624387 -0.436502 -1.82698 -7.06666 
-1.74867 -0.0752301 -1.54574 -0.909087 -1.89086 -0.875255 -0.389394 -1.54749 -3.71258 
-0.456752 -0.76963 -1.46329 -2.20027 -1.593 -0.559902 -1.12647 -0.415669 -0.625589 

hks 16 252 double
0.30669478236 0.30294591876 0.29920764589 0.29548054626 0.29176516718 0.28806202312 0.28437159654 0.28069433766 0.2770306642 
0.27338096154 0.26974558401 0.26612485784 0.26251908597 0.25892855495 0.25535354393 0.25179433537 0.30809547996 0.30580309665 
0.3034059592 0.30090897402 0.29831725674 0.29563608115 0.29287083153 0.29002695936 0.28710994467 0.28412526245 0.28107835438 
0.27797460598 0.27481932904 0.27161774937 0.26837499957 0.26509611638 0.31463379922 0.31192733723 0.30916600419 0.30635183285 
0.30348683955 0.30057301287 0.29761230632 0.29460663525 0.29155787822 0.28846788286 0.28533847618 0.28217147929 0.27896872604 
0.27573208552 0.27246348767 0.26916495152 0.28324835113 0.28078185868 0.27828881421 0.275770111 0.27322666213 0.27065938032 
0.26806915545 0.26545683064 0.26282317753 0.26016887167 0.25749446864 0.25480038177 0.25208686201 0.24935398067 0.24660161529 
0.24382943921 0.2209760612 0.21885974856 0.21672914581 0.21458509041 0.21242846894 0.21026019889 0.20808121049 0.20589242972 
0.20369476347 0.20148908786 0.19927624046 0.19705701705 0.19483217323 0.19260243111 0.19036849077 0.18813104631 0.2656586761 
0.26221215581 0.25879727615 0.25541595916 0.25206996968 0.24876093656 0.24549037651 0.24225972035 0.23907034162 0.23592358685 
0.23282080742 0.22976339219 0.22675280041 0.22379059407 0.22087846891 0.2180182831 0.23981243457 0.2380531167 0.23628448711 
0.23450759849 0.23272357816 0.23093364969 0.22913915622 0.22734158487 0.22554259211 0.22374402927 0.22194796782 0.22015672374 
0.21837288023 0.21659930818 0.21483918364 0.21309600149 0.35708662336 0.35346202921 0.34981922442 0.34615957454 0.34248430337 
0.33879446701 0.33509093073 0.3313743496 0.32764515382 0.32390353934 0.32014946448 0.31638265278 0.31260260222 0.30880860085 
0.30499974843 0.30117498381 0.26153489292 0.25922790762 0.25692971658 0.2546455989 0.25238101166 0.25014158644 0.24793312561 
0.24576159833 0.24363313561 0.24155402421 0.23953069874 0.23756973152 0.23567781968 0.23386176889 0.23212847339 0.23048489174 
0.25746011714 0.25609172525 0.25475809902 0.25346419736 0.25221498451 0.25101543154 0.24987052129 0.24878525576 0.24776466529 
0.24681381818 0.2459378299 0.24514187046 0.24443116885 0.24381101347 0.24328674747 0.24286375834 0.29725892212 0.29540100807 
0.29352434409 0.29162735643 0.28970853821 0.28776641275 0.28579949503 0.28380625307 0.28178507064 0.2797342128 0.27765179531 
0.27553575888 0.27338384897 0.27119360154 0.26896233497 0.26668714821 0.30684370841 0.30486334189 0.30284601846 0.30078938644 
0.298691264 0.29654964443 0.29436269713 0.29212876503 0.28984635883 0.28751414877 0.28513095433 0.28269573252 0.2802075652 
0.27766564585 0.27506926633 0.27241780396 0.2156566999 0.21412245586 0.21256563741 0.21098961886 0.20939802868 0.20779476002 
0.20618398059 0.2045701413 0.20295798273 0.20135253878 0.19975913662 0.19818339238 0.19663120183 0.19510872557 0.19362236847 
0.19217875294 0.25209313501 0.24947816614 0.24682522244 0.24413786572 0.24141916394 0.23867168424 0.23589749914 0.23309820488 
0.23027495097 0.22742847943 0.22455917256 0.22166710753 0.21875211633 0.21581384954 0.21285184239 0.2098655816 0.32227722428 
0.31984133742 0.31738027141 0.314904078 0.31242337026 0.30994926495 0.30749332051 0.30506747105 0.30268395618 0.30035524688 
0.29809396743 0.29591281338 0.2938244659 0.29184150267 0.28997630595 0.28824096827 0.24268046134 0.24071604217 0.2387245069 
0.23670750634 0.23466648736 0.23260266111 0.2305169746 0.2284100862 0.2262823455 0.22413377784 0.22196407382 0.21977258413 
0.21755831971 0.21531995752 0.21305585198 0.21076405192 0.23180877154 0.22919229488 0.22654864402 0.2238812847 0.22119337267 
0.21848776675 0.21576705261 0.2130335762 0.21028948561 0.20753677995 0.2047773636 0.20201310425 0.19924589292 0.19647770425 
0.19371065531 0.19094706107 0.26671894953 0.26433832551 0.26191652184 0.25945484605 0.25695481995 0.25441816394 0.25184678316 
0.24924275643 0.24660832893 0.24394590921 0.24125807093 0.23854755935 0.23581730231 0.23307042527 0.23031026959 0.22754041302 
0.27925948968 0.2780629504 0.2768473804 0.27560915192 0.27434470093 0.27305050503 0.27172305846 0.27035884604 0.26895431764 
0.26750586509 0.26600980258 0.26446235191 0.26285963352 0.26119766371 0.25947235855 0.25767954443 0.31093227213 0.30865727401 
0.30634103384 0.30398111141 0.30157531681 0.29912169949 0.2966185334 0.29406429963 0.29145766731 0.2887974738 0.28608270475 
0.2833124746 0.28048600784 0.27760262129 0.27466170731 0.27166271805 0.29228756832 0.28916427441 0.28605272068 0.28295232736 
0.27986226802 0.27678150307 0.27370880997 0.27064280911 0.26758198516 0.2645247035 0.26146922205 0.25841369867 0.25535619475 
0.25229467571 0.249227009 0.24615096055 0.31565616655 0.31392375304 0.31221078668 0.31052490801 0.308873763 0.30726499927 
0.3057062675 0.30420522667 0.30276955131 0.30140693905 0.30012511642 0.29893184125 0.2978348998 0.29684209705 0.29596123911 
0.29520010667 0.30572548508 0.30275470941 0.29982588655 0.29693733589 0.29408708089 0.29127282647 0.2884919361 0.28574141034 
0.28301786839 0.2803175342 0.27763622857 0.2749693681 0.272311972 0.26965867703 0.26700376078 0.26434117312 0.33404216466 
0.33026997038 0.32651552848 0.32277868699 0.31905902365 0.31535586276 0.31166829033 0.30799516734 0.30433514148 0.30068665774 
0.29704796828 0.29341714204 0.28979207453 0.28617049803 0.28254999244 0.2789279968 0.31190103631 0.30937982472 0.30683414223 
0.30426126445 0.30165853422 0.29902338292 0.29635334732 0.29364608263 0.29089937255 0.28811113721 0.2852794399 0.28240249373 
0.27947866883 0.27650650108 0.27348470272 0.27041217534 0.23150856621 0.22925034346 0.22692150667 0.22452580783 0.22206742709 
0.21955096525 0.21698143624 0.21436425986 0.21170525448 0.20901062976 0.20628697884 0.20354126967 0.2007808349 0.19801335949 