# vtk DataFile Version 5.1
vtk output
ASCII
DATASET POLYDATA
POINTS 252 float
0.788801 0.289183 -0.231973 0.792341 0.215694 -0.131697 0.783054 0.306355 -0.179237 
0.85624 0.261069 -0.171935 0.823 0.253533 -0.233671 0.740587 0.138378 -0.255654 
0.761668 0.258908 -0.130908 0.674661 0.200503 -0.201582 0.681169 0.165451 0.227308 
0.70723 0.141946 -0.149413 0.666723 -0.206607 0.028073 0.680368 -0.021733 0.145211 
0.716509 0.090214 -0.176239 0.674898 -0.290197 0.005799 0.69677 0.009229 0.209744 
0.685217 0.149936 0.153945 0.63565 -0.156834 -0.030682 0.713205 0.199448 -0.258854 
0.634599 0.338039 0.20969 0.650951 0.09645 -0.307705 0.665629 -0.209998 -0.10797 
0.63874 0.058688 0.26253 0.661259 0.028055 -0.264645 0.568986 0.170298 -0.26016 
0.650025 0.162627 0.132521 0.582479 0.195921 0.146638 0.599124 0.022954 -0.20334 
0.609375 0.192078 0.258071 0.583077 -0.098837 0.143532 0.596572 -0.182837 0.047921 
0.54624 0.151184 -0.220777 0.540392 -0.011574 -0.31381 0.572521 0.345491 0.264964 
0.511932 -0.315007 0.045614 0.563938 0.125545 0.261178 0.615579 0.087839 0.146315 
0.550519 -0.067264 0.092339 0.557292 -0.071605 0.253812 0.585164 -0.175795 -0.100583 
0.549661 0.172873 0.217434 0.526161 0.185171 -0.270632 0.545485 -0.086005 -0.201504 
0.60633 -0.324437 -0.082783 0.54449 0.3343 0.16068 0.502619 -0.006669 -0.184621 
0.551368 -0.230255 0.191429 0.57261 0.105255 -0.324049 0.5088 0.118798 0.190586 
0.535343 -0.065827 -0.09759 0.434947 0.138525 -0.22612 0.511088 -0.07735 -0.283451 
0.510563 -0.133279 0.271929 0.530071 -0.270587 -0.119611 0.497731 -0.223305 -0.253626 
0.460286 0.165924 0.264842 0.531584 -0.024004 0.133728 0.503956 -0.323083 -0.057772 
0.492294 0.037501 0.299451 0.502812 -0.015612 -0.020292 0.379165 0.154402 0.311017 
0.473975 -0.263983 0.238429 0.41366 -0.102167 -0.319972 0.441694 -0.20132 -0.290748 
0.412511 0.050233 0.095226 0.402053 0.151957 0.193138 0.245656 0.008175 -0.335378 
0.409237 0.128453 -0.010931 0.42607 0.162204 -0.291488 0.416167 -0.360032 0.163233 
0.373996 0.081113 -0.152439 0.361588 0.185223 -0.234208 0.41421 0.027888 -0.112706 
0.352634 -0.296248 -0.260873 0.320852 0.193103 -0.281223 0.398898 -0.098298 0.31164 
0.359285 -0.412899 0.021953 0.427711 0.115167 -0.324005 0.274999 -0.354532 0.224344 
0.200188 -0.216775 0.297674 0.35947 -0.376411 -0.17312 0.24297 -0.434727 -0.014902 
0.365999 0.112284 0.155654 0.3524 0.188814 0.277582 0.300063 0.231556 -0.024812 
0.305665 0.013685 0.346136 0.288327 0.178023 0.225148 0.25413 0.184682 -0.209749 
0.279787 0.182306 0.130762 0.255413 0.143169 0.329797 0.226585 0.275353 0.071361 
0.226343 -0.362065 -0.21155 0.168564 0.290255 -0.02093 0.195436 0.160795 -0.305639 
0.164814 0.210948 0.27457 0.249114 -0.401889 0.169022 0.262211 0.166555 -0.125797 
0.13862 0.194163 -0.205732 0.187561 0.102666 0.336387 0.117821 0.071632 -0.314726 
0.13996 -0.100428 0.337226 0.024664 -0.324578 -0.196588 0.0772 -0.237889 -0.256229 
0.150352 -0.143695 -0.299172 0.181616 0.240542 0.172222 0.169724 -0.405659 -0.120702 
0.106367 0.117459 0.331444 0.072039 -0.359045 0.20365 0.05979 0.200286 -0.146918 
0.036711 -0.23191 0.30318 0.044295 0.209926 0.211207 -0.023585 0.073597 -0.217223 
0.029651 -0.060129 -0.290335 0.047924 0.25764 0.191158 0.065247 -0.416073 0.071097 
-0.016695 -0.257099 0.259955 -0.038576 -0.199783 -0.249073 -0.091668 0.268851 -0.107181 
0.03334 -0.404239 -0.05307 -0.070628 -0.253455 -0.188912 -0.126441 0.339152 -0.085826 
0.016031 0.344968 -0.036773 0.003676 -0.059256 0.324518 0.04893 0.328855 0.034742 
-0.083527 0.136903 -0.170706 -0.156064 0.00723 -0.193661 -0.155674 0.011989 0.232463 
-0.118047 -0.300061 -0.058707 -0.048883 -0.32889 0.157163 -0.136572 -0.206844 0.175118 
-0.053792 0.264952 0.128431 -0.104066 0.144874 0.198807 -0.080015 0.373585 0.013232 
-0.087883 -0.073296 -0.232081 -0.162204 0.212973 0.170797 -0.168339 -0.259574 0.089641 
-0.175611 -0.057721 0.22614 -0.159349 0.341063 0.0953 -0.106341 -0.344557 0.034608 
-0.164863 0.605595 -0.265278 -0.181808 -0.074047 -0.179745 -0.150012 0.448762 -0.211139 
-0.175367 0.55612 -0.326848 -0.164344 0.462469 -0.182589 -0.184151 0.149785 -0.176002 
-0.182962 0.309941 0.177796 -0.238155 -0.188238 0.007877 -0.195471 0.370815 0.101914 
-0.237193 0.386009 -0.08591 -0.227574 0.066556 -0.193314 -0.221308 0.36387 -0.005403 
-0.208137 0.447434 0.157224 -0.169458 0.287157 -0.142634 -0.32329 0.278446 -0.225327 
-0.20669 0.39964 -0.251385 -0.241804 0.636786 -0.325419 -0.23258 -0.145361 -0.097937 
-0.240943 0.483517 -0.27985 -0.235196 0.500804 0.111393 -0.24031 0.444767 -0.164631 
-0.275602 0.365134 0.06183 -0.257959 0.612126 -0.258429 -0.252272 -0.126673 0.14112 
-0.28284 0.435558 -0.201676 -0.272506 0.290825 0.234141 -0.265433 0.532457 0.184889 
-0.273567 0.585882 -0.341106 -0.293837 0.650965 0.167897 -0.326443 0.512543 0.139498 
-0.292917 0.459008 0.222868 -0.25391 0.083158 0.216425 -0.346343 0.345975 -0.235484 
-0.343123 0.39203 0.110759 -0.298634 0.601595 0.123221 -0.352623 0.395919 0.204455 
-0.272475 0.361538 -0.022902 -0.343422 0.538373 0.188515 -0.364703 -0.137654 0.004461 
-0.355293 0.274901 0.244552 -0.37145 0.350944 -0.070736 -0.391664 0.346188 -0.162089 
-0.388953 0.310581 0.009574 -0.378425 0.655299 0.228064 -0.298205 -0.041909 -0.168114 
-0.28198 -0.034495 0.199204 -0.379062 0.179655 -0.215255 -0.425212 -0.081635 0.1224 
-0.407313 0.65321 0.135404 -0.426509 -0.174646 -0.08628 -0.421719 0.610899 0.210354 
-0.428279 -0.278774 -0.168281 -0.459694 0.029 0.194645 -0.416666 -0.328217 0.156868 
-0.426011 -0.384871 0.222925 -0.456412 -0.143112 -0.131295 -0.441718 -0.440344 0.157478 
-0.416356 -0.101596 -0.068284 -0.428153 -0.064047 -0.127165 -0.43684 0.195672 0.210418 
-0.481596 -0.133948 0.087855 -0.457544 -0.395004 0.127514 -0.473552 -0.187014 -0.020632 
-0.464031 -0.368339 -0.220565 -0.457596 -0.262691 0.209246 -0.458716 -0.238183 0.061912 
-0.469119 -0.381137 -0.139631 -0.498065 0.281441 -0.00309 -0.450692 -0.339559 0.205249 
-0.474715 -0.260484 -0.070703 -0.487655 -0.366724 0.258912 -0.426084 0.254744 0.135817 
-0.477167 -0.195859 -0.056853 -0.490047 -0.203592 0.071029 -0.451305 -0.252049 -0.137802 
-0.470189 0.037106 -0.17895 -0.526358 -0.164152 0.101242 -0.543178 -0.372934 -0.131561 
-0.438409 0.220659 -0.1558 -0.541695 -0.501673 -0.236199 -0.496967 -0.403938 -0.185107 
-0.598498 -0.186264 -0.164006 -0.549377 0.090577 0.192078 -0.500339 -0.495673 -0.233184 
-0.537078 -0.413381 -0.122231 -0.493702 -0.191748 0.005137 -0.52468 -0.085424 0.143753 
-0.541273 -0.191014 -0.143839 -0.624466 0.173754 0.090314 -0.513629 -0.089924 -0.183817 
-0.491589 -0.472656 0.221438 -0.473778 -0.411815 0.203609 -0.516623 -0.498016 -0.174118 
-0.520868 -0.521283 0.163309 -0.521165 0.209963 0.149175 -0.590368 -0.130288 0.134218 
-0.557394 0.171003 -0.14196 -0.60671 -0.017406 0.141458 -0.640725 0.169332 0.005034 
-0.583803 -0.251451 -0.093718 -0.630713 0.007361 0.10922 -0.638426 -0.251154 0.039747 
-0.541981 0.007756 -0.167391 -0.768592 -0.065303 -0.13497 -0.65072 0.06219 -0.083347 
-0.741212 -0.127821 -0.179733 -0.725249 -0.140055 0.067805 -0.681535 0.059276 -0.024256 
-0.73373 -0.248504 -0.110252 -0.813856 -0.131123 -0.003109 -0.75444 -0.2595 -0.068299 
-0.824918 -0.215049 -0.065293 -0.813898 -0.167886 -0.148957 -0.825043 -0.098089 -0.050939 

POLYGONS 501 1500
OFFSETS vtktypeint64
0 3 6 9 12 15 18 21 24 
27 30 33 36 39 42 45 48 51 
54 57 60 63 66 69 72 75 78 
81 84 87 90 93 96 99 102 105 
108 111 114 117 120 123 126 129 132 
135 138 141 144 147 150 153 156 159 
162 165 168 171 174 177 180 183 186 
189 192 195 198 201 204 207 210 213 
216 219 222 225 228 231 234 237 240 
243 246 249 252 255 258 261 264 267 
270 273 276 279 282 285 288 291 294 
297 300 303 306 309 312 315 318 321 
324 327 330 333 336 339 342 345 348 
351 354 357 360 363 366 369 372 375 
378 381 384 387 390 393 396 399 402 
405 408 411 414 417 420 423 426 429 
432 435 438 441 444 447 450 453 456 
459 462 465 468 471 474 477 480 483 
486 489 492 495 498 501 504 507 510 
513 516 519 522 525 528 531 534 537 
540 543 546 549 552 555 558 561 564 
567 570 573 576 579 582 585 588 591 
594 597 600 603 606 609 612 615 618 
621 624 627 630 633 636 639 642 645 
648 651 654 657 660 663 666 669 672 
675 678 681 684 687 690 693 696 699 
702 705 708 711 714 717 720 723 726 
729 732 735 738 741 744 747 750 753 
756 759 762 765 768 771 774 777 780 
783 786 789 792 795 798 801 804 807 
810 813 816 819 822 825 828 831 834 
837 840 843 846 849 852 855 858 861 
864 867 870 873 876 879 882 885 888 
891 894 897 900 903 906 909 912 915 
918 921 924 927 930 933 936 939 942 
945 948 951 954 957 960 963 966 969 
972 975 978 981 984 987 990 993 996 
999 1002 1005 1008 1011 1014 1017 1020 1023 
1026 1029 1032 1035 1038 1041 1044 1047 1050 
1053 1056 1059 1062 1065 1068 1071 1074 1077 
1080 1083 1086 1089 1092 1095 1098 1101 1104 
1107 1110 1113 1116 1119 1122 1125 1128 1131 
1134 1137 1140 1143 1146 1149 1152 1155 1158 
1161 1164 1167 1170 1173 1176 1179 1182 1185 
1188 1191 1194 1197 1200 1203 1206 1209 1212 
1215 1218 1221 1224 1227 1230 1233 1236 1239 
1242 1245 1248 1251 1254 1257 1260 1263 1266 
1269 1272 1275 1278 1281 1284 1287 1290 1293 
1296 1299 1302 1305 1308 1311 1314 1317 1320 
1323 1326 1329 1332 1335 1338 1341 1344 1347 
1350 1353 1356 1359 1362 1365 1368 1371 1374 
1377 1380 1383 1386 1389 1392 1395 1398 1401 
1404 1407 1410 1413 1416 1419 1422 1425 1428 
1431 1434 1437 1440 1443 1446 1449 1452 1455 
1458 1461 1464 1467 1470 1473 1476 1479 1482 
1485 1488 1491 1494 1497 1500 
CONNECTIVITY vtktypeint64
132 118 126 31 22 50 158 142 160 
240 243 241 250 249 251 151 143 152 
213 227 240 250 243 246 184 143 148 
213 196 227 219 246 243 250 246 249 
246 248 249 237 248 246 116 123 143 
123 148 143 184 148 182 182 196 213 
182 155 196 196 193 227 227 193 219 
193 225 219 193 210 225 219 237 246 
219 225 237 123 124 148 148 124 182 
124 139 182 196 187 193 212 210 193 
187 189 193 193 189 212 110 107 96 
96 98 110 107 110 123 123 110 124 
124 110 132 124 132 139 189 187 204 
189 201 212 201 189 204 212 218 215 
86 92 96 110 111 132 111 115 132 
132 126 139 230 204 222 221 201 204 
222 215 217 218 217 215 230 222 217 
70 73 86 86 73 92 115 118 132 
40 67 49 70 67 73 67 70 49 
30 40 49 23 40 30 23 46 40 
40 76 67 40 46 76 115 100 118 
115 101 100 23 17 46 17 19 46 
72 101 102 101 90 100 5 19 17 
19 31 46 19 22 31 19 5 22 
31 50 61 61 50 62 61 72 102 
61 62 72 50 53 62 90 101 72 
53 79 72 62 53 72 142 138 160 
140 138 142 160 156 162 158 160 162 
156 170 162 162 170 179 141 138 140 
141 140 153 156 152 170 156 153 152 
170 216 179 170 152 216 216 152 184 
243 250 241 143 184 152 184 213 234 
213 240 234 227 243 240 184 182 213 
227 219 243 218 212 201 96 92 98 
98 111 110 218 201 217 201 221 217 
221 204 230 76 92 73 92 65 98 
217 221 230 67 76 73 76 65 92 
65 111 98 102 115 111 102 101 115 
76 61 65 65 61 102 65 102 111 
46 31 76 76 31 61 154 165 160 
138 154 160 156 160 165 154 141 165 
138 141 154 165 141 156 141 153 156 
64 55 63 47 55 64 25 24 35 
127 106 114 64 63 81 24 25 43 
127 114 128 81 63 87 192 228 194 
114 121 128 121 135 128 85 81 87 
85 87 103 228 192 208 191 202 192 
208 192 202 229 208 206 208 202 206 
135 183 161 135 125 183 125 109 130 
103 112 109 125 169 183 125 130 169 
130 133 169 109 129 130 129 109 112 
183 169 190 169 177 190 177 197 190 
133 163 169 169 163 177 163 133 144 
177 163 168 168 173 177 144 168 163 
68 77 94 68 60 77 45 60 68 
45 28 37 11 14 28 28 14 37 
15 14 11 24 11 35 94 77 106 
77 60 78 15 11 24 78 108 77 
106 77 108 39 35 47 25 35 39 
34 39 54 106 108 114 47 64 54 
54 39 47 43 25 39 8 15 18 
18 15 24 54 64 82 64 81 85 
82 64 85 39 32 43 43 18 24 
32 18 43 114 108 121 93 85 103 
121 105 125 88 85 93 121 125 135 
105 109 125 105 93 109 93 103 109 
45 51 60 51 74 60 45 37 51 
51 37 57 14 21 37 60 74 78 
51 57 74 37 21 57 14 15 8 
21 14 8 21 8 27 78 99 108 
78 74 84 21 34 57 27 34 21 
34 27 39 78 84 99 74 57 84 
59 57 34 34 54 59 27 32 39 
27 8 18 27 18 32 108 99 121 
99 84 97 57 59 84 59 54 82 
99 97 121 121 97 105 97 84 88 
84 59 88 59 82 88 88 82 85 
88 93 97 97 93 105 153 151 152 
140 151 153 140 142 151 241 250 251 
245 241 251 242 241 245 242 240 241 
234 240 242 216 184 234 178 179 216 
178 162 179 158 162 178 53 52 79 
53 38 52 90 79 104 72 79 90 
41 38 53 50 41 53 22 41 50 
22 26 41 90 104 100 41 26 44 
22 12 26 5 12 22 5 3 12 
4 3 5 0 4 5 3 4 0 
26 30 44 44 30 49 9 30 26 
9 7 30 7 17 23 30 7 23 
0 5 17 0 17 7 2 0 7 
100 117 118 117 126 118 71 44 69 
44 49 69 49 70 69 69 86 95 
69 70 86 139 126 155 95 86 96 
204 187 207 207 222 204 182 139 155 
215 222 210 212 215 210 187 200 207 
222 207 210 207 200 210 187 223 200 
155 176 195 107 123 116 91 96 107 
225 200 237 225 210 200 196 195 187 
155 195 196 120 107 116 237 239 248 
248 239 249 151 116 143 119 116 151 
249 244 247 149 119 147 119 151 147 
151 142 147 249 247 251 238 251 247 
178 216 180 147 142 158 147 158 174 
236 242 245 236 234 242 236 205 234 
205 216 234 180 216 205 174 158 178 
20 42 52 79 75 80 52 56 79 
42 56 52 20 52 38 79 80 104 
48 38 41 48 41 71 71 41 44 
26 12 9 12 1 9 3 1 12 
100 104 117 58 48 71 9 6 7 
9 1 6 1 3 6 3 2 6 
3 0 2 6 2 7 117 137 126 
66 71 95 95 71 69 145 126 137 
66 95 83 155 126 145 83 95 91 
155 145 176 95 96 91 203 211 223 
200 223 237 223 239 237 239 223 214 
187 195 223 195 176 185 195 198 223 
120 91 107 120 116 119 120 119 131 
122 91 120 239 244 249 131 119 149 
244 238 247 238 245 251 238 226 245 
159 149 174 149 147 174 226 236 245 
236 226 205 232 205 226 180 174 178 
42 33 56 104 80 117 198 203 223 
131 122 120 180 159 174 20 13 42 
56 75 79 16 20 38 144 150 168 
194 228 231 113 106 127 47 35 55 
55 36 63 11 55 35 11 28 55 
55 28 36 94 106 113 29 28 45 
68 94 75 33 29 45 33 45 68 
166 186 181 188 181 186 186 175 188 
181 188 175 166 172 186 164 166 181 
157 172 166 164 181 168 164 157 166 
167 175 186 175 168 181 173 168 175 
175 171 173 150 157 164 168 150 164 
197 209 232 173 209 197 197 177 173 
220 232 226 220 197 232 220 226 235 
150 146 157 146 150 144 190 197 220 
224 220 235 144 136 146 190 220 224 
233 224 235 133 136 144 129 136 133 
130 129 133 198 190 224 214 224 233 
112 122 129 103 122 112 185 183 190 
185 161 183 202 224 214 202 198 224 
206 202 214 211 206 214 103 89 122 
191 198 202 103 87 89 128 135 161 
134 128 161 199 206 211 191 194 199 
206 199 229 191 192 194 199 194 231 
229 199 231 66 83 87 63 66 87 
127 128 134 137 127 134 58 66 63 
113 127 137 36 58 63 58 36 48 
80 94 113 16 48 36 29 16 36 
28 29 36 80 75 94 10 16 29 
13 10 29 13 29 33 56 33 75 
33 68 75 13 16 10 20 16 13 
42 13 33 172 167 186 172 157 167 
167 157 159 175 167 171 167 159 171 
171 159 180 173 171 209 171 180 209 
205 232 209 209 180 205 157 146 159 
146 136 159 136 149 159 235 226 238 
235 238 244 122 131 136 136 131 149 
233 235 244 129 122 136 195 190 198 
214 233 239 239 233 244 228 208 229 
223 211 214 89 91 122 145 185 176 
145 161 185 191 203 198 211 203 199 
89 83 91 134 161 145 203 191 199 
87 83 89 137 134 145 66 58 71 
117 113 137 117 80 113 16 38 48 
231 228 229 195 185 190 
POINT_DATA 252
SCALARS k float
LOOKUP_TABLE default
0.920781 0.426339 1.21786 2.11077 0.648481 -0.0493809 0.846993 -0.557396 0.234879 
-0.00660717 1.01057 0.852411 0.298145 1.2721 0.755475 0.316821 -0.355717 -0.408772 
1.24458 0.189855 1.59346 0.127753 0.0482703 -0.691254 0.237742 0.079191 -0.583414 
-0.278278 -1.58666 -1.02907 -0.374643 0.0305911 2.30393 -0.545901 -0.41709 -0.341216 
-0.241867 -0.32036 -0.88731 -2.40346 0.719565 -1.48317 0.882368 2.151 -0.279136 
0.297714 0.0639548 -0.281944 -0.148338 -0.490393 -0.299419 0.0837195 -0.644057 0.330822 
-0.344716 -0.400948 -0.414654 -0.0166562 -0.133308 0.142218 0.204699 -0.00510496 0.10362 
-0.0851253 0.00975215 0.0575559 0.197266 -0.523048 0.181333 -0.127353 0.285257 -0.0915025 
0.136216 0.334958 0.0312151 0.128539 0.00441527 0.106269 0.00882912 0.239748 0.122106 
-0.0980934 0.377252 0.226316 0.0789751 -0.511853 -0.304485 -0.109919 -0.0715655 0.241272 
0.127649 -0.0905086 0.308991 0.305352 0.159617 -0.308066 -0.224418 -0.0321846 0.124606 
0.0365196 0.174144 0.0143692 0.0232993 -0.251752 0.0577348 0.250287 0.127298 -0.213128 
0.240468 -0.327425 -0.122683 0.0368862 0.393233 0.145824 0.119017 0.223128 -0.083865 
0.150833 0.145893 -0.221157 0.120114 0.0975926 -0.097362 -0.0925941 -0.139246 -0.158652 
-0.0456011 0.0848397 -0.0506696 -0.231804 -0.0819995 0.246418 -0.152281 -0.31749 0.0350918 
-0.111784 -0.842636 0.239724 1.27368 -0.165353 0.144804 0.888545 -0.0104892 -0.109091 
-0.030354 -0.315249 -0.688985 -0.944564 -0.0460556 -0.198768 0.1898 -1.30096 -0.330115 
-0.031321 1.7499 -0.202069 -0.938029 0.0162137 -0.417477 -0.748886 0.776526 -0.241997 
-0.643972 0.0629009 -0.0597527 1.75553 1.28217 -0.666341 -0.260294 -0.157601 0.137242 
-0.555325 0.1628 -0.304094 -0.190896 -0.997595 0.0560367 0.170145 0.0191039 0.2962 
-0.69283 1.44519 -0.043973 -0.0800745 -0.0287234 0.416631 2.16695 -0.179083 1.71823 
0.0535959 -0.823157 0.292684 0.69311 -1.75329 0.527417 -1.83105 -0.619481 -0.338038 
-0.624074 -0.693605 -1.31603 0.514359 -0.558588 -0.617676 0.0903419 0.295682 0.127401 
-0.446794 1.34397 -0.227396 -1.70337 -0.200764 -0.209748 -0.269079 -1.14383 0.282825 
-0.586516 2.56632 0.0984492 0.132506 0.269655 1.30981 0.562016 -2.00005 -1.45047 
-0.0159123 0.443584 0.158857 0.536579 -0.0606423 1.26834 3.98488 0.114031 0.24779 
0.341114 -0.095315 0.262388 0.416043 -0.115483 0.548574 -0.145196 0.236072 -0.268936 
0.28692 0.129604 -0.343557 0.253336 0.373623 0.396645 0.894146 0.965486 0.495637 

FIELD FieldData 7
h 1 252 float
0.92195 0.613542 -0.240019 0.263373 0.735887 0.674956 2.70446 -0.96643 3.22124 
-0.752486 2.12338 1.3352 2.7671 2.46313 3.18346 0.989972 1.33959 0.91744 
10.1211 2.46628 2.76453 1.71682 1.91064 1.93453 -1.12192 -4.85499 -1.72515 
0.526454 2.55266 2.92512 -1.03758 2.64393 1.57291 3.34646 1.8639 -5.17829 
0.718756 3.30221 2.7107 -11.8395 3.03958 2.32861 2.73298 0.0891761 -1.12782 
3.51446 2.23226 -2.01672 0.674885 -2.06784 2.82251 2.62277 2.38625 3.2046 
1.08869 -0.874684 3.4599 2.60873 -0.403767 2.64818 2.3706 2.39368 2.82741 
-0.41388 -0.108337 2.07646 0.537031 1.83351 3.68192 -2.0402 -1.06925 -0.16436 
2.17343 2.73169 2.28796 3.83233 1.95464 2.30499 2.05626 3.49085 4.1495 
-0.636841 1.85444 1.39512 2.16181 0.803845 -0.797829 1.24746 3.56382 1.7199 
2.70661 1.84573 3.0178 3.2457 3.84204 1.53727 2.26504 1.81652 2.22271 
1.88739 2.84387 2.2561 1.97228 2.24599 3.4456 1.45965 3.10672 1.84871 
2.21976 1.76447 1.07693 1.38029 2.53353 3.93527 2.41723 1.93736 1.01287 
3.38913 2.46834 1.84 1.81922 1.403 1.5347 0.725336 0.295931 0.493584 
1.55519 3.22418 1.51993 1.38784 0.79672 1.40186 1.23193 1.03585 2.41125 
0.91965 1.5211 3.58917 -0.0975531 0.591767 2.60982 -0.291577 -0.468113 0.509112 
1.38709 2.42569 -0.127627 0.196829 0.422246 1.38838 2.53051 0.510901 0.453702 
-0.489985 7.68865 0.463465 0.147903 -0.00349343 1.2412 1.02713 0.145454 0.849816 
-1.2002 0.643238 0.609833 0.808995 -0.299241 -0.464248 -0.0272645 0.74606 1.9411 
-0.449435 -0.261111 1.51548 1.03946 2.08765 1.46943 0.813348 1.01084 1.16487 
1.11189 0.0331332 0.413606 0.688197 0.853377 0.73952 -0.0145836 -1.7747 3.59377 
1.11801 0.71548 -0.39553 0.904388 0.123747 0.9973 0.386079 -0.0110128 1.93732 
-2.84893 0.656546 -0.861111 -0.634849 -1.07969 1.03497 0.172359 1.83992 0.634843 
-0.488174 -0.337331 1.5786 1.91206 2.74225 0.191816 0.297845 1.35498 0.510809 
1.65979 0.187804 -0.39091 0.340794 1.24861 0.325852 0.0340932 -1.75175 0.530746 
0.469752 2.3609 0.182263 6.79732 -0.208063 1.38401 2.7588 2.40122 0.887879 
1.67009 1.1982 3.59725 0.794251 2.62559 1.58162 1.18144 1.56628 2.13958 
-0.177821 0.792447 3.13279 0.830359 0.314658 2.28904 0.100008 3.5031 1.47473 

kmin 1 252 float
2.92747 2.85273 1.02998 1.67021 2.21703 2.13046 7.89958 1.36301 4.79348 
0.774974 3.11283 2.21525 4.64276 3.54748 4.84593 3.88465 1.50619 2.56722 
16.3858 4.56127 3.22823 3.09603 3.2004 5.55251 0.487555 -1.52535 0.616289 
1.67821 3.09764 3.11642 1.66248 4.25458 3.18815 4.1707 3.03068 0.102144 
1.79096 4.57864 3.09192 3.72889 6.99417 4.88631 4.27022 2.29279 0.294079 
4.18641 3.78024 1.20558 1.81652 1.04429 4.28059 3.28912 3.43281 4.87004 
3.39317 -0.280763 4.6449 3.59368 1.5058 3.1765 3.04475 3.64592 4.21481 
0.681062 0.848048 3.38017 1.23424 4.72898 4.72665 0.0980011 1.21494 0.546555 
3.06363 5.02058 3.42532 5.18207 2.90688 2.96282 2.97303 4.93874 6.47604 
0.323508 4.18674 1.86903 3.11496 1.62703 0.26643 1.89925 5.89931 2.56584 
3.75035 3.45999 5.65977 5.68048 5.41347 2.97154 4.38052 2.76465 4.21616 
2.73915 4.53035 3.5714 3.25399 3.89888 5.36822 2.35677 4.51794 3.9051 
3.15341 3.18873 2.08859 2.16046 4.51181 6.24662 3.91106 3.29244 2.40931 
6.03005 4.39911 3.43837 3.39101 1.96755 2.45975 1.4492 0.476113 0.584996 
2.85023 5.19945 2.68558 2.79293 1.52525 1.71479 2.19024 2.35158 4.46504 
1.48204 3.01059 6.40342 1.50752 1.20256 5.40069 1.10819 1.25371 1.36019 
3.33505 4.39467 2.44456 2.1456 0.545544 1.91325 5.74803 3.46238 1.29419 
0.86081 9.64924 1.28639 2.00674 1.22518 1.97921 1.59417 1.92312 1.73719 
-0.314917 2.11941 3.48199 3.27678 0.435176 1.28089 1.34504 1.35428 3.89322 
-0.291622 2.04458 3.4511 2.03927 4.06357 3.42229 1.56611 1.38658 2.42684 
1.93049 0.771242 0.933502 1.09487 1.10009 1.44174 2.41558 0.200904 7.45913 
3.15199 1.41281 0.272656 3.77708 0.911699 3.49784 3.83143 0.719211 2.41437 
0.957534 1.41471 1.57875 1.14069 1.1117 2.59516 1.44465 2.37308 1.70419 
0.844648 0.464077 1.8524 3.76911 4.82251 1.30806 0.767431 1.83916 2.85611 
2.39274 1.28683 1.37506 1.30424 1.76963 1.52165 0.671733 1.49551 1.12268 
2.06726 3.79462 0.543281 12.0338 1.36152 2.76047 4.87703 3.6125 1.34453 
2.70236 2.16139 6.20831 2.17445 4.78984 2.3335 2.37231 4.17252 4.69886 
0.598575 1.32919 6.21598 2.00164 1.55075 4.12395 1.00115 5.33205 3.89045 

kmax 1 252 float
-1.08356 -1.62565 -1.51001 -1.14347 -0.745255 -0.780544 -2.49065 -3.29587 1.64899 
-2.27995 1.13394 0.455145 0.891442 1.37878 1.521 -1.90471 1.173 -0.732344 
3.85648 0.371286 2.30083 0.337621 0.62089 -1.68345 -2.7314 -8.18463 -4.06659 
-0.625301 2.00767 2.73382 -3.73764 1.03327 -0.0423384 2.52223 0.697127 -10.4587 
-0.35345 2.02579 2.32949 -27.408 -0.915006 -0.229096 1.19575 -2.11444 -2.54972 
2.84251 0.684272 -5.23902 -0.466751 -5.17998 1.36443 1.95642 1.33969 1.53916 
-1.21578 -1.46861 2.27489 1.62378 -2.31333 2.11986 1.69646 1.14145 1.44002 
-1.50882 -1.06472 0.772744 -0.160178 -1.06196 2.63719 -4.17839 -3.35344 -0.875276 
1.28322 0.442793 1.15059 2.48259 1.00241 1.64715 1.13948 2.04297 1.82296 
-1.59719 -0.477866 0.921214 1.20866 -0.0193396 -1.86209 0.595665 1.22833 0.873962 
1.66288 0.231468 0.375824 0.810916 2.27062 0.103 0.149568 0.868397 0.229264 
1.03564 1.15739 0.940814 0.690574 0.593107 1.52298 0.562536 1.69549 -0.207683 
1.2861 0.340222 0.0652698 0.600129 0.555246 1.62393 0.923405 0.582288 -0.383568 
0.748213 0.537565 0.241631 0.247418 0.838454 0.609655 0.00147007 0.115748 0.402173 
0.260157 1.2489 0.354292 -0.0172453 0.0681924 1.08893 0.273617 -0.279881 0.357459 
0.357262 0.031603 0.774926 -1.70262 -0.0190259 -0.18105 -1.69135 -2.18994 -0.341967 
-0.560863 0.456719 -2.69981 -1.75194 0.298947 0.863515 -0.687005 -2.44058 -0.386783 
-1.84078 5.72806 -0.359458 -1.71093 -1.23217 0.503191 0.460087 -1.63221 -0.0375571 
-2.08549 -0.832934 -2.26233 -1.65879 -1.03366 -2.20939 -1.39957 0.137844 -0.0110219 
-0.607248 -2.5668 -0.420147 0.0396459 0.11173 -0.483429 0.0605889 0.635098 -0.0970994 
0.293284 -0.704975 -0.106291 0.281529 0.606659 0.0373027 -2.44475 -3.75031 -0.271583 
-0.91597 0.01815 -1.06372 -1.9683 -0.664205 -1.50324 -3.05927 -0.741236 1.46027 
-6.65539 -0.101617 -3.30097 -2.41038 -3.27108 -0.525227 -1.09993 1.30676 -0.434507 
-1.821 -1.13874 1.30481 0.0550164 0.661996 -0.924428 -0.171742 0.870791 -1.83449 
0.926843 -0.911218 -2.15688 -0.622656 0.727597 -0.86995 -0.603546 -4.99901 -0.0611925 
-1.12776 0.927176 -0.178755 1.56082 -1.77764 0.00753958 0.640564 1.18994 0.431224 
0.637817 0.23502 0.986195 -0.585951 0.461338 0.82973 -0.00943416 -1.03996 -0.419703 
-0.954217 0.255708 0.0496037 -0.340924 -0.921433 0.454122 -0.801131 1.67415 -0.940998 

hks 16 252 double
0.56138286323 0.56764825927 0.57380867144 0.57986012306 0.58579923411 0.59162318436 0.59732967245 0.6029168718 0.60838338418 
0.61372819173 0.618950608 0.62405022849 0.62902688123 0.63388057752 0.63861146336 0.64321977154 0.56855415854 0.57432608507 
0.58000308193 0.58558150702 0.59105820399 0.59643047644 0.60169605914 0.60685308654 0.61190005909 0.61683580774 0.62165945685 
0.62637038579 0.63096818935 0.63545263731 0.63982363324 0.64408117282 0.60013630738 0.60601629936 0.611781678 0.61742938027 
0.62295688582 0.6283621775 0.63364369914 0.63880031152 0.64383124705 0.64873606358 0.65351459797 0.65816691946 0.66269328332 
0.66709408474 0.67136981343 0.67552100887 0.59761898194 0.60336341544 0.60898788512 0.61449040289 0.61986950857 0.62512421936 
0.63025397787 0.63525859981 0.64013822181 0.64489325012 0.6495243103 0.65403219826 0.65841783277 0.66268220952 0.6668263567 
0.67085129216 0.58549937014 0.59125217212 0.59691177918 0.60247345338 0.60793311555 0.61328731446 0.61853318928 0.62366842644 
0.62869121214 0.6336001813 0.6383943641 0.64307313093 0.64763613647 0.65208326358 0.65641456759 0.66063022154 0.48829970647 
0.49455078 0.50074397497 0.50687337253 0.51293361516 0.5189198958 0.52482794006 0.53065398245 0.53639473722 0.54204736468 
0.54760943365 0.55307888069 0.55845396671 0.56373323156 0.56891544704 0.57399956872 0.58692459329 0.59278170863 0.59853131518 
0.60417037095 0.60969630024 0.6151069616 0.62040061409 0.62557588233 0.63063172072 0.63556737686 0.64038235439 0.64507637538 
0.64964934208 0.65410129835 0.65843239064 0.66264282865 0.49198437257 0.49876840888 0.50547756621 0.512105389 0.51864608154 
0.52509448659 0.53144605651 0.53769681809 0.54384333232 0.54988265001 0.55581226441 0.56163006151 0.56733426897 0.57292340411 
0.5783962217 0.5837516619 0.42964038618 0.43386546015 0.43812907657 0.44242312708 0.44673931056 0.45106920584 0.45540434386 
0.45973627761 0.4640566486 0.46835724873 0.47263007632 0.47686738553 0.48106172819 0.48520598771 0.48929340441 0.49331759222 
0.48002785651 0.48608293901 0.49210529819 0.49808725204 0.50402159122 0.50990159603 0.51572104554 0.52147421895 0.52715588967 
0.53276131261 0.53828620505 0.54372672177 0.54907942488 0.55434124903 0.55950946251 0.56458162489 0.29045997153 0.28835380167 
0.28617690719 0.28393286445 0.28162552347 0.27925902012 0.27683778941 0.27436657938 0.27185046471 0.26929485955 0.26670552901 
0.26408859854 0.26145056087 0.25879828003 0.25613899204 0.25348030207 0.31966619534 0.32361041854 0.32761888489 0.3316836219 
0.33579645921 0.33994910963 0.34413324785 0.3483405854 0.35256294027 0.35679229977 0.36102087576 0.3652411511 0.369445917 
0.37362830067 0.37778178342 0.38190020921 0.47156624685 0.47765476365 0.48368823406 0.4896604739 0.49556593287 0.50139968168 
0.50715739055 0.51283530003 0.51843018537 0.52393931551 0.52936040779 0.5346915793 0.53993129577 0.54507831903 0.55013165336 
0.55509049172 0.32164677223 0.31960428117 0.31743815011 0.31515259438 0.31275226209 0.31024222664 0.30762798212 0.30491544122 
0.30211093529 0.29922121601 0.29625345802 0.29321526195 0.29011465693 0.28696010211 0.2837604864 0.28052512581 0.31864099916 
0.32150057607 0.32448904394 0.32760281032 0.33083733884 0.33418722012 0.33764625406 0.34120754133 0.34486358127 0.34860637366 
0.35242752167 0.3563183334 0.36026991975 0.36427328629 0.36831941742 0.37239935117 0.43677836547 0.4414831762 0.44617538216 
0.45084657783 0.4554885985 0.46009356335 0.46465391306 0.46916244173 0.47361232277 0.47799712858 0.4823108439 0.48654787276 
0.49070303915 0.49477158146 0.4987491411 0.50263174539 0.25674633707 0.25518976123 0.25354858813 0.2518271319 0.25003002637 
0.24816222279 0.24622898951 0.24423591318 0.24218890098 0.24009418314 0.2379583154 0.23578818071 0.23359098959 0.23137427883 
0.22914590789 0.22691405273 0.43230387713 0.438672083 0.44505150222 0.45143296604 0.45780762707 0.46416700157 0.4705030036 
0.47680797067 0.48307468117 0.48929636333 0.49546669632 0.50157980345 0.50763023811 0.51361296289 0.51952332229 0.52535700976 
0.52720359696 0.53208772467 0.53686669501 0.54153666157 0.54609409433 0.55053575988 0.55485870293 0.55906022938 0.56313789117 
0.56708947259 0.57091297808 0.5746066209 0.57816881248 0.58159815186 0.58489341468 0.5880535415 0.34449001471 0.34934589027 
0.35432268413 0.35941146144 0.36460300326 0.36988790554 0.37525667399 0.38069981288 0.38620790599 0.39177168836 0.39738210771 
0.40303037463 0.40870800114 0.41440682725 0.4201190358 0.42583715572 0.30448362172 0.30279671696 0.30098471208 0.2990506848 
0.29699824043 0.29483150398 0.29255511323 0.29017421288 0.28769444976 0.28512196896 0.28246341055 0.2797259067 0.27691707858 
0.27404503277 0.27111835649 0.26814611129 0.30872560114 0.31183705396 0.31506482262 0.3184061128 0.32185744013 0.32541466393 
0.32907303012 0.33282722187 0.33667141682 0.34059934891 0.34460437345 0.3486795334 0.35281762522 0.35701126243 0.36125293555 
0.36553506662 0.27714932544 0.28146624034 0.28588470392 0.29039777808 0.2949985384 0.2996801356 0.30443584879 0.30925912982 
0.31414363835 0.31908326733 0.32407215932 0.32910471358 0.33417558475 0.33927967356 0.34441211036 0.34956823234 0.3525822936 
0.35841790016 0.36432103376 0.37028222806 0.37629223837 0.38234208964 0.3884231144 0.39452698073 0.40064571055 0.40677168873 
0.41289766364 0.41901673982 0.42512236364 0.43120830262 0.43726861929 0.44329764036 0.47369136271 0.4787121617 0.48364884051 
0.48849546897 0.49324664102 0.4978974562 0.50244349727 0.50688080483 0.51120585 0.51541550579 0.51950701783 0.52347797474 
0.52732627862 0.5310501156 0.53464792672 0.53811837889 0.47704772117 0.48141481073 0.48574008502 0.49001785783 0.4942425273 
0.49840859126 0.50251066328 0.50654348941 0.51050196524 0.51438115285 0.51817629716 0.52188284124 0.5254964398 0.52901297057 