# vtk DataFile Version 5.1
vtk output
ASCII
DATASET POLYDATA
POINTS 252 float
0.745347 -0.092249 -0.091137 0.727449 -0.028815 0.000665 0.656719 -0.038439 -0.239511 
0.698204 -0.245977 -0.366372 0.715981 -0.12895 -0.320802 0.675537 -0.225666 -0.390355 
0.751341 -0.045383 -0.135677 0.72568 -0.094968 -0.260752 0.637867 -0.036967 0.045811 
0.643497 -0.141008 -0.24893 0.655443 -0.308225 -0.469755 0.631754 -0.019024 -0.109844 
0.634647 -0.275102 -0.455126 0.614367 -0.06222 -0.160692 0.550092 -0.055185 -0.120924 
0.569273 -0.285824 -0.417569 0.531612 0.035959 0.075677 0.628396 -0.110974 -0.340896 
0.58904 -0.152025 -0.328333 0.597176 -0.119195 -0.06309 0.540948 -0.469614 0.157783 
0.59355 -0.210546 -0.385637 0.503137 -0.002845 0.052306 0.544703 -0.348975 0.188662 
0.505901 0.359313 0.313793 0.479947 -0.436272 0.199893 0.481966 -0.362332 0.095402 
0.485022 -0.527586 0.176104 0.472531 0.358095 0.398373 0.512583 -0.073157 -0.041745 
0.515281 0.047234 -0.064448 0.476947 0.227218 0.275782 0.42204 -0.352739 0.196336 
0.395083 0.373746 0.32057 0.484633 -0.531365 0.111538 0.389894 0.230954 0.219096 
0.419528 0.152304 0.306379 0.367342 0.042479 0.064747 0.444068 0.010347 -0.136155 
0.412494 0.107438 -0.129252 0.391157 0.078371 0.042709 0.393502 0.3295 0.209247 
0.408093 0.21268 0.407696 0.379497 -0.0279 -0.093887 0.411135 -0.314732 0.119986 
0.375137 0.239303 -0.079172 0.379905 0.000547 0.012317 0.280786 -0.335809 0.25905 
0.388066 0.206133 -0.004375 0.314066 0.266206 0.165619 0.343092 0.381299 0.249573 
0.335891 0.196152 0.32996 0.339787 -0.480507 0.163344 0.392989 -0.37856 0.032558 
0.385493 -0.438337 0.024202 0.351302 0.120005 0.073429 0.309893 -0.045238 -0.158526 
0.318823 -0.10869 -0.001887 0.329206 0.239017 -0.093339 0.327661 0.284878 0.344853 
0.352041 0.153187 -0.190009 0.310629 -0.4452 0.094686 0.282611 -0.49724 0.219178 
0.241733 0.337075 0.069572 0.345377 -0.477845 0.233373 0.285037 0.134274 0.041762 
0.28422 -0.068786 0.09774 0.391815 -0.389601 0.240682 0.305547 -0.053868 -0.113572 
0.298799 0.352824 0.324884 0.292829 -0.343785 0.14144 0.238871 -0.117749 0.036869 
0.259216 -0.376516 0.328167 0.264292 0.25532 0.323119 0.287826 0.383255 0.179407 
0.314067 0.200158 0.228073 0.328292 0.235433 -0.149035 0.32379 0.192238 0.022446 
0.226524 0.410647 0.231296 0.330016 0.054814 -0.219502 0.307893 0.299087 -0.074028 
0.222445 0.236474 -0.198211 0.230805 0.357794 0.00869 0.171247 -0.421487 0.249041 
0.219888 -0.119658 -0.069349 0.251755 -0.412823 0.120822 0.218033 0.278837 0.163426 
0.20166 0.370465 0.264476 0.223952 -0.31407 0.312274 0.174083 -0.259947 0.224532 
0.171626 0.316729 0.239944 0.182686 0.294058 0.137637 0.21154 -0.370518 0.224037 
0.206066 -0.434201 0.255266 0.183507 0.161062 0.022011 0.249724 0.195073 -0.241424 
0.232413 0.230035 0.082123 0.161104 0.493826 0.171499 0.214766 0.056331 0.050295 
0.23538 -0.052908 0.073385 0.175576 -0.355581 0.358312 0.194954 0.296747 -0.145089 
0.167984 -0.143814 0.155376 0.202134 0.447987 0.115337 0.177403 0.008755 0.067634 
0.148455 -0.194797 0.106297 0.121381 -0.097606 0.184627 0.084081 -0.379603 0.314512 
0.10935 0.251358 -0.146598 0.168665 -0.21395 0.306765 0.134556 0.449124 0.061011 
0.227503 -0.075472 -0.170474 0.17038 0.067878 -0.285654 0.147921 0.1909 -0.224464 
0.138509 -0.275414 0.37403 0.106909 0.010425 -0.205015 0.146071 0.322618 -0.025865 
0.085987 -0.327632 0.214428 0.080355 -0.039895 0.103147 0.127393 0.175759 -0.03852 
0.126706 0.276871 0.083257 0.129227 -0.141799 -0.067745 0.084163 0.315825 0.162339 
0.057816 -0.264603 0.354792 0.079989 0.009976 -0.005314 0.066981 0.065684 -0.279398 
0.081006 0.11723 -0.060143 0.065722 0.40559 0.225258 0.067864 -0.178817 0.101478 
0.087678 0.392956 0.059335 0.078767 0.122966 -0.283467 0.088298 0.162239 -0.188454 
0.100309 -0.178292 0.318 0.03571 0.041632 -0.102647 0.039618 0.384346 0.12164 
0.044529 -0.059223 0.045571 0.057571 -0.128023 0.001451 0.035855 0.168682 -0.118333 
0.016434 0.049063 -0.247494 0.072377 -0.067912 -0.134051 0.038067 -0.153149 0.206272 
0.028668 -0.306945 0.244664 0.01721 -0.24513 0.297513 0.021355 0.229059 -0.096804 
-0.001714 -0.020461 -0.191476 0.005753 0.173399 -0.27852 0.010746 0.08591 -0.075528 
0.001475 0.001568 -0.066427 -0.049845 0.153138 0.080122 -0.025352 0.285533 -0.140092 
-0.049753 0.031492 0.054848 -0.08949 0.272443 0.002501 -0.075343 -0.051732 -0.090973 
-0.092821 0.230841 -0.258798 -0.069451 0.098507 -0.335542 -0.116532 -0.039829 -0.03311 
-0.206799 -0.0402 -0.019744 -0.130306 0.306092 -0.095257 -0.133822 0.174638 0.119755 
-0.12769 -0.020665 -0.235246 -0.124079 0.031416 0.096053 -0.191828 0.266207 0.063876 
-0.209159 0.075958 0.137558 -0.233524 0.05523 -0.323242 -0.185346 0.199729 -0.288794 
-0.195398 -0.058708 -0.207148 -0.238448 0.24388 0.098111 -0.277841 0.00521 -0.275812 
-0.278108 0.152845 0.00385 -0.244336 -0.077234 -0.023092 -0.233274 0.308179 -0.05593 
-0.201701 0.244512 -0.234272 -0.308032 0.097814 0.177563 -0.264111 0.056078 0.16854 
-0.357855 0.278446 -0.184563 -0.265926 0.023733 0.183577 -0.280746 -0.112385 -0.089237 
-0.360332 0.065971 -0.267105 -0.258843 0.044253 0.074223 -0.310214 -0.00557 0.131139 
-0.316741 0.111063 -0.039745 -0.318209 0.2607 -0.051794 -0.290407 0.187488 -0.292129 
-0.345457 -0.095421 -0.05381 -0.319287 0.061971 0.253247 -0.314176 0.059201 0.061786 
-0.355689 0.031274 0.115366 -0.370862 0.303686 0.006953 -0.329123 0.104251 0.318781 
-0.38015 0.114214 0.247084 -0.433173 -0.014869 -0.25179 -0.370634 0.244109 0.044262 
-0.36478 0.007456 -0.012758 -0.32305 0.26936 -0.123821 -0.424977 0.122288 -0.084141 
-0.371466 -0.065296 -0.160771 -0.383595 0.194098 -0.032025 -0.437776 0.0554 0.268672 
-0.423473 0.30694 -0.020559 -0.419996 0.235657 -0.20566 -0.403746 -0.048048 -0.049447 
-0.437435 0.21881 -0.101025 -0.477805 0.145694 -0.142821 -0.4478 0.297119 0.165897 
-0.427629 0.143716 -0.249389 -0.496927 -0.252565 0.200083 -0.444918 -0.293473 0.072203 
-0.507852 -0.361762 0.087166 -0.559313 -0.154659 -0.207538 -0.467236 0.006584 -0.071935 
-0.470744 0.204902 0.129393 -0.491791 0.246101 0.05768 -0.503629 -0.21838 0.10667 
-0.527465 0.017707 -0.136679 -0.508947 0.270521 0.142347 -0.562695 -0.12129 -0.003646 
-0.496721 -0.356195 0.22192 -0.577054 -0.312373 0.104716 -0.449344 0.08681 -0.20307 
-0.527148 -0.245652 0.020353 -0.573871 -0.039858 -0.142266 -0.545973 -0.165287 0.126989 
-0.609928 -0.065203 0.011873 -0.538301 -0.140904 -0.136503 -0.605582 -0.155626 -0.091395 
-0.666487 -0.135121 0.164095 -0.704418 -0.190603 -0.135192 -0.679222 -0.261969 -0.056862 
-0.604565 -0.192599 -0.057906 -0.683341 -0.281699 0.012628 -0.659702 -0.065145 -0.152298 
-0.615584 -0.315171 0.126384 -0.629742 -0.229384 0.208234 -0.681899 -0.04957 0.119867 
-0.619077 -0.069879 0.079099 -0.631622 -0.151189 -0.217214 -0.677267 -0.086651 -0.22136 
-0.680084 -0.005372 -0.04442 -0.721013 -0.078176 0.021843 -0.742993 0.018144 -0.038628 
-0.743971 -0.266475 0.04325 -0.708701 -0.249273 0.151631 -0.779066 -0.111418 -0.131331 
-0.704155 -0.166991 0.051164 -0.772534 -0.003234 0.099156 -0.824578 -0.207427 0.082297 
-0.779824 -0.139215 0.153135 -0.814146 0.010299 0.009267 -0.791974 -0.01732 -0.086275 
-0.84743 -0.116607 0.104013 -0.826349 -0.208831 0.020069 -0.864517 -0.092337 -0.001713 

POLYGONS 501 1500
OFFSETS vtktypeint64
0 3 6 9 12 15 18 21 24 
27 30 33 36 39 42 45 48 51 
54 57 60 63 66 69 72 75 78 
81 84 87 90 93 96 99 102 105 
108 111 114 117 120 123 126 129 132 
135 138 141 144 147 150 153 156 159 
162 165 168 171 174 177 180 183 186 
189 192 195 198 201 204 207 210 213 
216 219 222 225 228 231 234 237 240 
243 246 249 252 255 258 261 264 267 
270 273 276 279 282 285 288 291 294 
297 300 303 306 309 312 315 318 321 
324 327 330 333 336 339 342 345 348 
351 354 357 360 363 366 369 372 375 
378 381 384 387 390 393 396 399 402 
405 408 411 414 417 420 423 426 429 
432 435 438 441 444 447 450 453 456 
459 462 465 468 471 474 477 480 483 
486 489 492 495 498 501 504 507 510 
513 516 519 522 525 528 531 534 537 
540 543 546 549 552 555 558 561 564 
567 570 573 576 579 582 585 588 591 
594 597 600 603 606 609 612 615 618 
621 624 627 630 633 636 639 642 645 
648 651 654 657 660 663 666 669 672 
675 678 681 684 687 690 693 696 699 
702 705 708 711 714 717 720 723 726 
729 732 735 738 741 744 747 750 753 
756 759 762 765 768 771 774 777 780 
783 786 789 792 795 798 801 804 807 
810 813 816 819 822 825 828 831 834 
837 840 843 846 849 852 855 858 861 
864 867 870 873 876 879 882 885 888 
891 894 897 900 903 906 909 912 915 
918 921 924 927 930 933 936 939 942 
945 948 951 954 957 960 963 966 969 
972 975 978 981 984 987 990 993 996 
999 1002 1005 1008 1011 1014 1017 1020 1023 
1026 1029 1032 1035 1038 1041 1044 1047 1050 
1053 1056 1059 1062 1065 1068 1071 1074 1077 
1080 1083 1086 1089 1092 1095 1098 1101 1104 
1107 1110 1113 1116 1119 1122 1125 1128 1131 
1134 1137 1140 1143 1146 1149 1152 1155 1158 
1161 1164 1167 1170 1173 1176 1179 1182 1185 
1188 1191 1194 1197 1200 1203 1206 1209 1212 
1215 1218 1221 1224 1227 1230 1233 1236 1239 
1242 1245 1248 1251 1254 1257 1260 1263 1266 
1269 1272 1275 1278 1281 1284 1287 1290 1293 
1296 1299 1302 1305 1308 1311 1314 1317 1320 
1323 1326 1329 1332 1335 1338 1341 1344 1347 
1350 1353 1356 1359 1362 1365 1368 1371 1374 
1377 1380 1383 1386 1389 1392 1395 1398 1401 
1404 1407 1410 1413 1416 1419 1422 1425 1428 
1431 1434 1437 1440 1443 1446 1449 1452 1455 
1458 1461 1464 1467 1470 1473 1476 1479 1482 
1485 1488 1491 1494 1497 1500 
CONNECTIVITY vtktypeint64
109 106 132 67 47 72 75 36 51 
51 59 73 75 51 73 188 197 184 
188 189 197 132 106 140 114 109 123 
123 109 132 123 132 142 132 140 142 
109 88 89 107 123 141 141 123 142 
72 47 88 72 88 100 72 100 93 
62 72 93 93 100 107 83 93 107 
64 67 72 64 72 62 24 33 28 
36 42 51 100 88 114 114 88 109 
100 114 107 114 123 107 28 33 59 
28 59 42 51 42 59 164 163 182 
153 154 164 130 154 145 145 154 153 
21 12 15 164 182 171 15 18 21 
21 5 12 17 21 18 17 5 21 
4 5 17 15 10 3 12 5 10 
10 5 3 15 12 10 4 2 7 
6 7 2 0 7 6 220 236 230 
218 190 236 190 167 195 165 167 163 
138 144 154 112 115 125 112 111 115 
56 111 112 79 56 112 190 218 177 
204 177 218 125 115 138 79 112 95 
199 204 202 199 182 204 182 177 204 
145 131 130 113 130 131 113 95 130 
95 112 130 60 79 95 38 29 43 
38 14 29 19 29 14 223 195 200 
237 215 230 151 157 170 56 43 68 
68 46 57 68 57 111 139 111 84 
84 121 139 155 156 165 176 156 169 
169 183 176 195 176 183 183 200 195 
223 200 209 223 209 220 222 215 237 
248 242 251 57 84 111 139 121 136 
215 228 224 242 226 250 242 250 251 
223 224 226 226 224 228 226 228 227 
226 227 250 82 116 110 116 129 110 
63 80 82 119 120 116 129 116 120 
151 170 161 166 170 181 211 198 201 
48 45 58 48 58 77 58 80 63 
77 58 63 143 151 148 6 1 0 
230 248 239 237 230 239 200 192 209 
144 147 152 133 146 147 136 133 139 
136 124 133 124 126 133 68 43 46 
43 22 46 38 30 14 30 11 14 
209 194 213 192 194 209 133 126 146 
30 38 39 194 201 202 180 196 194 
137 143 146 126 137 146 119 108 126 
198 199 201 194 196 201 215 224 230 
1 6 11 49 75 86 203 198 214 
191 203 210 120 122 134 120 91 122 
86 90 91 103 49 91 49 86 91 
35 49 41 122 127 134 74 49 103 
41 49 74 134 127 97 34 61 54 
26 54 53 26 34 54 207 216 217 
206 207 219 70 61 85 44 53 61 
53 54 61 44 26 53 231 243 240 
240 229 231 217 231 229 227 217 229 
207 217 227 240 243 245 240 245 250 
250 249 251 250 245 249 221 222 234 
221 212 222 128 140 135 128 135 136 
212 215 222 212 206 215 171 174 193 
171 182 174 170 171 193 47 32 70 
216 232 231 25 67 52 52 64 62 
88 47 92 92 89 88 89 92 117 
105 89 117 216 205 232 20 23 25 
25 23 32 25 32 67 47 67 32 
47 70 92 92 85 83 92 83 117 
141 117 83 141 83 107 67 64 52 
83 62 93 24 41 33 33 50 69 
33 69 59 31 24 28 41 24 31 
59 69 73 73 69 87 73 87 90 
31 28 42 36 31 42 149 145 153 
81 113 108 81 95 113 60 95 81 
153 164 171 15 9 18 15 3 9 
3 7 9 4 3 5 3 4 7 
2 4 17 177 167 190 163 159 165 
154 144 159 182 163 177 163 167 177 
164 154 163 154 159 163 154 125 138 
130 125 154 112 125 130 182 199 174 
46 37 57 19 8 29 29 8 22 
0 8 19 0 1 8 247 248 251 
239 248 247 244 239 247 237 239 244 
234 237 238 183 192 200 155 160 156 
152 150 155 152 147 150 135 124 136 
1 11 30 178 180 192 147 148 150 
147 146 148 104 126 124 104 98 126 
39 48 40 30 39 40 16 30 40 
180 168 196 146 143 148 98 119 126 
94 119 98 211 201 196 168 181 196 
168 166 181 29 22 43 192 180 194 
60 39 79 178 192 185 118 124 135 
16 37 22 16 40 37 37 40 55 
37 55 65 37 65 98 98 65 94 
150 148 160 148 158 160 160 158 162 
178 162 168 168 180 178 173 178 185 
173 185 172 185 192 186 1 16 8 
16 1 30 8 16 22 46 22 37 
37 98 66 98 104 99 99 104 106 
104 124 118 150 160 155 160 162 156 
162 178 169 156 162 169 169 173 175 
169 178 173 169 175 179 183 179 192 
192 179 186 233 238 244 249 244 247 
37 66 57 57 66 71 71 66 99 
66 98 99 71 99 102 140 118 135 
183 169 179 233 234 238 246 244 249 
249 247 251 71 102 105 121 105 128 
136 121 128 143 145 149 143 137 145 
108 131 126 58 81 101 58 76 81 
76 60 81 193 174 199 157 171 170 
149 171 157 101 81 108 80 58 101 
248 230 236 190 235 236 190 208 235 
167 165 195 18 9 13 2 17 13 
144 152 159 171 149 153 17 18 13 
159 155 165 159 152 155 56 68 111 
13 19 14 9 19 13 213 236 220 
213 218 236 220 209 213 138 147 144 
133 115 139 38 43 56 11 13 14 
11 2 13 6 2 11 194 218 213 
194 202 218 204 218 202 133 147 138 
115 133 138 79 38 56 39 38 79 
201 199 202 131 145 137 126 131 137 
7 0 9 108 113 131 23 26 44 
23 20 26 231 241 243 190 195 208 
45 60 76 156 176 165 165 176 195 
195 223 208 223 220 224 224 220 230 
248 236 242 9 0 19 208 223 226 
208 226 235 236 235 226 236 226 242 
82 80 101 82 101 116 116 101 108 
151 149 157 181 170 193 181 193 187 
193 199 198 198 187 193 48 39 45 
45 39 60 45 76 58 116 108 119 
143 149 151 196 181 191 216 206 205 
32 44 70 23 44 32 241 249 245 
243 241 245 241 246 249 241 232 246 
231 232 241 212 221 205 205 206 212 
128 117 141 232 225 246 221 234 225 
205 221 225 140 128 141 225 244 246 
225 233 244 106 104 118 179 189 186 
172 186 189 172 185 186 158 166 162 
210 214 211 44 61 70 128 105 117 
233 225 234 106 102 99 168 162 166 
65 77 96 55 77 65 40 48 55 
158 161 166 158 151 161 148 151 158 
94 96 120 65 96 94 198 211 214 
203 187 198 191 187 203 161 170 166 
119 94 120 120 96 91 63 91 96 
96 77 63 134 129 120 63 103 91 
103 63 82 134 110 129 97 110 134 
97 103 110 103 82 110 229 240 227 
219 207 227 250 227 240 228 219 227 
215 206 219 215 219 228 84 105 121 
84 71 105 57 71 84 237 244 238 
222 237 234 55 48 77 211 196 210 
191 210 196 232 205 225 142 140 141 
102 89 105 89 102 109 140 106 118 
78 74 103 50 41 74 91 90 122 
122 90 127 216 231 217 92 70 85 
207 206 216 20 34 26 27 20 25 
27 25 52 52 62 61 61 62 83 
85 61 83 34 20 27 34 27 52 
61 34 52 78 103 97 78 97 127 
33 41 50 50 74 78 69 50 78 
69 78 87 127 87 78 87 127 90 
75 73 90 86 75 90 31 36 35 
41 31 35 49 35 75 35 36 75 
210 203 214 188 172 189 184 173 188 
173 184 175 175 184 179 188 173 172 
179 184 189 189 184 197 109 102 106 
181 187 191 115 111 139 
POINT_DATA 252
SCALARS k float
LOOKUP_TABLE default
0.656358 1.2221 0.42 0.537649 0.410927 -0.212478 0.542863 -0.430823 0.429825 
-1.07184 3.17396 -0.530603 0.332939 -1.3223 -0.835418 2.13421 0.608311 0.481848 
-0.0022018 0.104995 0.789712 -0.117191 -0.0394235 2.25905 1.50299 -0.231021 0.294945 
1.20723 1.83749 -0.175106 -0.404684 0.694859 -0.447003 -0.268068 1.22059 0.0620089 
1.32236 -1.03544 -0.79733 -0.514804 -0.862166 0.03745 1.38069 -0.52994 0.380887 
0.738552 -0.649633 -0.409085 0.68887 0.155079 -0.0790554 0.0294479 -1.04483 0.965265 
1.03699 0.710141 0.0309808 0.688589 -0.96005 -0.247532 0.101073 -0.355603 0.814522 
-0.223678 0.700798 -0.501037 1.16254 -0.496156 -0.217825 0.1566 0.164559 -0.828555 
0.156823 0.366036 -0.368443 0.258899 0.232888 -0.837828 -0.409425 0.106862 0.605314 
-0.194124 -0.483383 -0.628363 -0.14969 0.607231 -0.207925 -0.278293 -0.805337 -0.826483 
-0.417381 -2.76508 -1.58104 -0.108891 -0.413633 0.395051 -0.294894 1.37486 -0.230006 
-0.997708 0.223769 0.29844 -0.625902 -0.765867 -0.385716 -0.740795 -0.351721 0.740985 
0.301889 -0.0522858 0.605902 0.244552 0.279708 -0.131755 0.661701 -0.506125 -0.938525 
-0.319155 0.122738 -0.483022 -0.728439 0.287519 0.329175 0.523514 -0.490308 -0.228521 
-1.11627 1.33524 -0.504459 0.0110118 -0.572563 -1.05629 0.560662 -2.83285 1.049 
0.202368 -0.0532935 -1.18757 -0.67395 0.315461 -0.0856305 0.454042 0.571306 0.367917 
0.606539 -0.125919 -0.747614 0.0671555 0.416291 0.543199 0.363066 0.194588 0.311826 
0.125399 0.336758 -0.0626463 -0.327982 0.106269 0.274026 -0.131261 0.258834 0.128133 
0.734322 0.305221 0.0219201 0.0838884 0.877072 -0.126689 -0.224553 -0.206037 0.27807 
-0.0586173 0.115002 0.0478402 0.620957 0.508495 0.490603 -0.201176 -3.91896 -0.0806899 
0.350844 -2.24584 0.189894 0.109926 -1.1255 0.137566 -0.382913 0.237194 2.93342 
-0.567711 -0.3182 0.140696 -1.40095 -0.54595 -0.814141 -0.608758 -1.98321 4.15911 
0.23815 0.16541 -0.660013 -0.986044 0.860662 2.26289 0.440213 0.584779 1.34886 
0.73264 0.391212 0.0290309 1.53807 0.101987 0.000694156 -0.0962846 1.76048 -0.0528212 
2.29682 0.0194991 -1.21694 -0.105413 -0.740117 -0.0052675 0.0469956 -0.827733 -2.35836 
-0.0546942 -0.274324 0.0574979 -0.212864 0.0310431 -1.37401 -0.615547 0.129803 0.0873758 
-0.292012 0.374221 0.0919755 -0.338537 1.44531 0.375508 -0.531048 -0.259746 0.212859 
2.54509 0.348735 -0.590994 0.202775 0.645935 0.320527 0.589073 0.349246 0.553689 

FIELD FieldData 7
h 1 252 float
-0.120269 2.74967 1.01438 1.37378 0.54023 1.2163 1.11351 3.89966 0.667697 
-0.33589 0.501371 1.05869 0.778485 -11.9824 -0.38802 -0.55323 1.82865 1.14211 
-1.42542 1.00523 11.8034 1.48098 1.39518 0.921922 -0.188624 5.00854 5.55967 
-2.67494 1.16415 0.994239 1.54942 7.53183 -0.801042 0.514505 0.932812 5.50751 
7.12212 -0.943355 1.29709 2.34466 1.92082 -0.151364 5.83095 -0.0648973 1.81717 
1.81008 1.26042 -0.237082 3.26029 -0.0157729 1.43027 1.16006 3.72193 10.6557 
4.84783 -0.160091 0.388067 3.13113 0.672943 3.0083 1.67561 0.957144 1.47441 
0.163188 -0.333901 -1.56506 -0.332075 2.4431 0.424715 14.9409 -1.46604 3.60131 
1.69405 1.68698 0.42927 -0.615403 1.35757 0.961953 0.734568 3.23306 1.68492 
0.866894 1.46318 0.0665028 0.690634 -0.167732 -1.95276 1.52133 0.468718 -3.7716 
-0.21235 -2.3208 -2.55792 7.28073 -1.61875 3.05713 -1.22136 8.83128 -1.16892 
-0.588744 1.68135 1.92705 -0.749768 0.936376 -0.304312 0.126761 0.142521 2.40576 
1.23686 -0.287648 0.706625 0.66289 2.10025 0.597687 0.278698 -0.359037 3.01065 
0.201888 0.40402 -1.61006 1.47958 1.52013 0.528872 7.59172 -0.873947 0.574967 
-2.55684 0.262816 1.58196 -0.132503 1.96279 1.16835 -0.0634395 0.107738 2.0411 
-0.623658 1.44795 0.152937 -1.07837 1.66179 5.65524 1.22535 8.92558 0.89348 
0.0649071 0.539208 -2.57635 1.16323 0.67152 3.45776 1.89513 2.58995 0.827339 
2.02054 2.51846 0.887741 1.5377 3.63437 4.25898 2.04646 2.56158 3.05469 
2.34783 3.37422 4.32493 1.94326 3.53868 1.16684 -3.07205 1.75686 3.42673 
2.92378 -1.28395 0.709162 3.98771 1.55486 2.63822 3.46045 0.0362666 0.546913 
-2.74816 1.15763 4.01605 1.46355 -0.472064 -1.59815 -1.29705 1.66278 -0.270246 
-1.32804 3.47346 -0.484323 -2.39624 3.09491 -1.0345 0.985136 -2.46972 0.515285 
3.13641 3.89899 0.413616 0.297473 2.25578 0.180887 3.77927 0.498667 3.50863 
0.242862 -0.638499 -2.42018 -0.0844472 3.56571 1.35939 0.602647 0.802252 0.763978 
12.9864 0.0405891 1.83107 0.0917136 -0.598205 1.36519 3.03807 0.597187 -1.12879 
0.799124 0.51584 2.19413 0.388727 1.9109 -0.194672 0.574749 7.67715 0.223766 
1.04178 3.9542 1.21441 -0.606852 -2.15741 0.543084 6.9464 0.686186 4.14551 
-0.571453 -0.292044 -1.56143 4.59654 7.02689 1.30258 10.9835 1.2974 3.90886 

kmin 1 252 float
0.501442 4.58399 4.47433 3.03986 1.88633 2.99742 3.16106 8.56713 1.68368 
0.633747 1.64887 1.77144 2.60104 -3.59181 1.45064 0.242985 3.28537 5.19083 
3.69712 1.48859 14.8062 4.63637 1.83204 2.60648 0.852567 9.30255 11.4358 
0.765452 3.0936 1.30392 3.36505 16.6343 0.247329 1.2984 2.54476 11.345 
16.0087 1.82208 3.65578 5.26509 4.45886 1.23385 13.2896 1.0178 5.72841 
3.64085 3.91861 -0.00144701 7.1244 1.35606 2.32713 2.4085 7.62217 21.8727 
8.62854 3.00645 1.16437 7.97799 2.94816 7.97491 2.72168 2.09902 2.40825 
2.55162 0.65803 0.971841 1.29297 5.02511 2.66254 31.8988 2.35531 10.2054 
3.04114 2.31947 1.22428 1.01742 1.87551 2.49676 1.75707 6.51774 2.41823 
1.67632 2.41423 1.11548 2.06723 1.79504 1.08558 1.64349 0.774029 -0.922534 
1.60991 -0.686041 -0.186199 12.2676 1.61124 5.79995 0.280489 16.423 0.886206 
0.186789 2.30324 2.84861 0.306656 1.56167 0.586704 1.0477 0.935175 4.45209 
2.41653 1.3738 3.14016 1.40739 3.60561 1.66268 1.32611 0.481084 5.16209 
1.18664 1.88067 -0.306352 2.26358 3.5831 1.89213 12.1104 0.54832 1.0004 
0.231066 1.15575 3.71391 2.31629 3.28303 2.67267 0.699436 1.96061 3.20317 
2.22753 3.42454 1.73714 -0.379171 3.00669 11.315 3.06528 15.3401 1.47712 
1.2092 1.95262 -1.13125 4.21536 1.13376 5.93575 4.42927 3.97456 1.75551 
2.51366 4.04262 3.01378 3.18245 5.95505 7.50717 4.24594 5.05569 3.67512 
2.55296 5.8211 7.68922 4.04071 5.14087 2.34115 -2.15097 2.61497 4.58342 
4.80035 1.37919 1.16756 6.8034 2.48788 5.15001 5.93269 0.775011 3.83698 
-1.7443 2.80555 6.78367 3.25932 0.608786 0.378462 1.30979 3.53863 0.738723 
-0.477706 6.28969 1.3045 -1.41916 5.21574 -0.259384 2.38989 -0.00477329 2.25595 
4.79209 6.16851 2.32324 3.99654 4.15348 1.23728 6.3337 1.63038 11.6946 
1.22973 -0.466733 -1.89336 1.08281 5.62862 3.29677 1.5222 3.0134 4.68477 
20.2048 0.667766 3.11599 0.927353 0.924318 1.79644 5.506 1.43579 1.15787 
1.92656 1.53141 3.8252 0.818773 2.41346 0.979181 2.01121 14.3826 2.69469 
3.96663 7.56349 1.94449 0.658101 1.14904 3.53311 14.3079 2.57536 7.82429 
1.92894 0.89959 0.0719624 8.63877 13.4167 3.13988 16.6881 3.01243 6.49138 

kmax 1 252 float
-0.74198 0.91536 -2.44556 -0.292302 -0.805871 -0.564807 -0.934047 -0.767821 -0.348282 
-1.30553 -0.646126 0.345937 -1.04406 -20.373 -2.22668 -1.34944 0.371936 -2.90661 
-6.54795 0.521861 8.80062 -1.6744 0.958314 -0.762638 -1.22981 0.714527 -0.316469 
-6.11533 -0.7653 0.68456 -0.266209 -1.57064 -1.84941 -0.269394 -0.679133 -0.330025 
-1.76443 -3.70879 -1.0616 -0.575764 -0.617221 -1.53658 -1.62772 -1.1476 -2.09406 
-0.020696 -1.39777 -0.472716 -0.603821 -1.3876 0.533423 -0.0883718 -0.178315 -0.561233 
1.06711 -3.32663 -0.388239 -1.71573 -1.60227 -1.95832 0.629538 -0.184728 0.540561 
-2.22525 -1.32583 -4.10196 -1.95712 -0.138903 -1.81311 -2.01705 -5.2874 -3.00272 
0.346954 1.05449 -0.36574 -2.24823 0.839627 -0.572857 -0.287932 -0.0516103 0.951623 
0.0574701 0.512131 -0.982477 -0.685962 -2.13051 -4.9911 1.39918 0.163407 -6.62066 
-2.03461 -3.95556 -4.92964 2.29384 -4.84874 0.314303 -2.72321 1.23953 -3.22404 
-1.36428 1.05947 1.00549 -1.80619 0.311083 -1.19533 -0.794179 -0.650133 0.359433 
0.0571755 -1.9491 -1.72691 -0.0816112 0.594899 -0.467307 -0.768711 -1.19916 0.859216 
-0.782865 -1.07263 -2.91376 0.695583 -0.542845 -0.834384 3.07309 -2.29621 0.149532 
-5.34474 -0.630119 -0.549996 -2.5813 0.642554 -0.335982 -0.826315 -1.74513 0.879029 
-3.47484 -0.528636 -1.43127 -1.77758 0.316894 -0.00449774 -0.614578 2.51111 0.309843 
-1.07939 -0.874209 -4.02146 -1.88891 0.209281 0.979762 -0.639011 1.20534 -0.100829 
1.52741 0.994303 -1.2383 -0.107057 1.31369 1.0108 -0.153017 0.0674567 2.43425 
2.1427 0.927346 0.960627 -0.154197 1.93648 -0.00746331 -3.99314 0.898748 2.27004 
1.04721 -3.94709 0.250768 1.17201 0.62184 0.126431 0.988211 -0.702478 -2.74315 
-3.75202 -0.490286 1.24843 -0.332229 -1.55291 -3.57475 -3.9039 -0.213081 -1.27921 
-2.17837 0.65722 -2.27315 -3.37332 0.97407 -1.80962 -0.419617 -4.93466 -1.22538 
1.48073 1.62947 -1.49601 -3.4016 0.358079 -0.875509 1.22484 -0.633047 -4.67733 
-0.744004 -0.810264 -2.94701 -1.2517 1.50279 -0.57799 -0.316902 -1.4089 -3.15681 
5.76805 -0.586588 0.546146 -0.743926 -2.12073 0.933954 0.570143 -0.241418 -3.41545 
-0.328317 -0.499728 0.563061 -0.0413179 1.40833 -1.36852 -0.861707 0.971715 -2.24716 
-1.88307 0.34491 0.484334 -1.8718 -5.46386 -2.44694 -0.415114 -1.20299 0.466741 
-3.07184 -1.48368 -3.19482 0.554304 0.637119 -0.534717 5.27897 -0.417635 1.32634 

hks 16 252 double
0.42686677013 0.43116777726 0.43578240534 0.44069880014 0.44590257442 0.45137684999 0.45710233007 0.46305740246 0.46921827292 
0.47555912755 0.48205232209 0.48866859513 0.4953773019 0.50214666498 0.50894403789 0.51573617771 0.38080582224 0.38101020173 
0.38136827871 0.38188607995 0.38256879629 0.38342068717 0.38444497586 0.38564373638 0.38701777529 0.38856651207 0.39028786315 
0.39217813524 0.39423193381 0.39644209262 0.39879962964 0.40129373391 0.49117923959 0.50078758352 0.51065479139 0.52074319241 
0.53101251093 0.54142044539 0.55192325444 0.56247633153 0.57303475149 0.58355377557 0.59398930496 0.60429827642 0.61443899714 
0.62437141943 0.63405735828 0.64346065705 0.72987671194 0.74198970253 0.75386960753 0.76548151249 0.77679393476 0.78777881105 
0.79841138958 0.80867004196 0.81853601156 0.82799311652 0.83702742568 0.84562692473 0.8537811884 0.86148107225 0.86871843494 
0.87548589894 0.64232446598 0.65493359578 0.6674414248 0.67980818666 0.69199583575 0.70396826472 0.71569145562 0.72713356809 
0.7382649699 0.74905821735 0.75948799407 0.76953101789 0.77916592547 0.78837314422 0.79713476048 0.8054343913 0.79657273005 
0.80729614807 0.81769101685 0.82774288873 0.83743927715 0.84676948079 0.85572438243 0.86429623002 0.87247840748 0.88026520277 
0.88765158057 0.89463296655 0.90120504976 0.90736360877 0.91310436627 0.91842287547 0.44626051314 0.45072437176 0.45551791125 
0.46063630833 0.46607033315 0.47180640251 0.47782672476 0.48410952853 0.49062936487 0.49735747071 0.50426218053 0.51130937273 
0.51846293751 0.52568525405 0.53293766583 0.54018094469 0.5230918315 0.53420713932 0.54547526378 0.55685460495 0.56830282236 
0.57977727279 0.59123541107 0.60263514761 0.61393515907 0.62509515162 0.63607607831 0.64684031453 0.65735179635 0.66757612785 
0.67748066351 0.68703457158 0.34092470203 0.34132174788 0.34178388441 0.34231565619 0.34292116302 0.34360407617 0.3443676508 
0.34521472917 0.34614772992 0.34716862035 0.34827886982 0.34947938456 0.35077042546 0.35215151255 0.35362132071 0.35517757268 
0.54179189996 0.55244566079 0.56332489987 0.57437852273 0.58555445751 0.59680036497 0.60806429278 0.61929525844 0.63044375028 
0.64146214051 0.65230500922 0.66292938249 0.67329489132 0.68336386059 0.69310133952 0.7024750853 0.85015062931 0.85941449139 
0.86836386985 0.87698589928 0.88526981407 0.89320675136 0.900789521 0.90801235169 0.91487062266 0.92136059038 0.92747911966 
0.93322342778 0.93859084988 0.94357863244 0.94818376046 0.95240282241 0.36771179934 0.37155937294 0.37568159707 0.3800682076 
0.38470660719 0.38958196911 0.39467736985 0.39997394645 0.40545107415 0.4110865594 0.41685684359 0.42273721271 0.42870200916 
0.43472484209 0.44077879376 0.44683662009 0.85812228401 0.86699508199 0.87555374593 0.88378860553 0.89169174509 0.8992567874 
0.90647865623 0.91335332535 0.91987756189 0.92604867223 0.93186425771 0.93732198759 0.94241939574 0.94715370659 0.95152169487 
0.95551958208 0.41888617266 0.42907497373 0.43943218286 0.44992204922 0.46050795319 0.47115283076 0.48181956416 0.49247132939 
0.50307189445 0.51358586533 0.52397887989 0.53421775294 0.54427057781 0.55410679194 0.56369721448 0.57301406474 0.28825207322 
0.29157072266 0.29503498517 0.29863515378 0.30236017483 0.30619789287 0.31013530462 0.31415880973 0.31825444711 0.32240810719 
0.32660571262 0.33083336219 0.33507743572 0.3393246601 0.34356213916 0.34777735207 0.79972776386 0.80989840691 0.81978615068 
0.82937381918 0.83864628331 0.84759030466 0.85619434501 0.86444835085 0.87234352211 0.87987207449 0.88702700433 0.89380186433 
0.90019055771 0.90618715726 0.91178575426 0.91698034091 0.28586665779 0.28434688092 0.28287595007 0.28145076713 0.28006837903 
0.27872618925 0.27742215106 0.27615493338 0.27492405113 0.27372995347 0.27257406521 0.27145877859 0.27038739514 0.26936401945 
0.26839340927 0.26748078828 0.64279480869 0.65477756614 0.66669575745 0.67850670372 0.69016984822 0.70164697997 0.71290237273 
0.7239028455 0.73461775337 0.74501891952 0.75508052062 0.76477893823 0.77409258897 0.78300174529 0.79148835759 0.79953588666 
0.64198118163 0.65433491298 0.66654900914 0.67858750763 0.69041684474 0.70200592307 0.71332610117 0.724351116 0.7350569511 
0.74542166442 0.75542519033 0.76504912973 0.77427654111 0.78309174369 0.79148014154 0.79942807525 0.37339197474 0.37629123374 
0.37957117005 0.38321673512 0.38720948799 0.39152788823 0.39614763332 0.4010420288 0.40618237912 0.41153838687 0.41707854873 
0.42277053748 0.42858156099 0.43447869112 0.44042915761 0.44640060439 0.66837300267 0.6782123235 0.68803900063 0.69782967692 
0.70756096082 0.71720963231 0.72675284733 0.73616833607 0.74543459095 0.75453104068 0.7634382079 0.77213784851 0.78061307233 
0.78884844516 0.79683007323 0.80454567143 0.78958084224 0.80002936249 0.81018212122 0.8200223556 0.82953549665 0.83870898431 
0.84753204543 0.85599544559 0.86409122581 0.87181243507 0.87915286896 0.88610682393 0.89266887527 0.89883368554 0.90459584853 
0.90994977154 0.28662759085 0.28387639874 0.28112800496 0.27839082039 0.27567294553 0.2729821584 0.27032591864 0.26771138432 
0.26514543762 0.26263471497 0.26018563675 0.25780443222 0.25549715501 0.25326968582 0.25112771912 0.24907673234 0.61974283859 
0.62995169078 0.64024629996 0.65059186376 0.66095340869 0.67129626698 0.6815865257 0.69179143582 0.70187977161 0.71182213329 
0.72159118938 0.73116185799 0.74051142944 0.74961963484 0.75846866761 0.76704316559 0.66876375837 0.67485265927 0.68108068217 
0.68743209468 0.69388918906 0.70043247744 0.7070409278 0.71369223479 0.72036311788 0.72702963902 0.73366753109 0.74025252833 
0.74676068986 0.75316870748 0.75945418955 0.76559591324 0.56797493266 0.57768581271 0.58757740283 0.59762526392 0.6078021527 
0.61807840771 0.62842240303 0.63880105373 0.64918035514 0.65952593744 0.66980361693 0.67997992676 0.69002261153 0.69990107279 