# vtk DataFile Version 5.1
vtk output
ASCII
DATASET POLYDATA
POINTS 252 float
0.696577 0.343277 0.028877 0.71299 0.24799 0.029093 0.693188 0.168374 0.085831 
0.609215 0.176257 0.004002 0.629623 0.50011 -0.00154 0.65859 0.081315 0.070139 
0.619914 0.485603 -0.035094 0.544259 0.051889 0.145709 0.614679 0.273406 0.082488 
0.558661 0.137559 0.128326 0.542842 0.515601 0.019967 0.581791 0.320142 0.023714 
0.540693 0.109579 0.028717 0.553936 -0.000878 0.103402 0.532133 0.153502 0.084358 
0.571898 -0.007687 0.125406 0.528336 0.470007 -0.002714 0.565449 -0.348513 -0.410506 
0.599119 0.386152 -0.045451 0.513517 -0.353462 -0.277117 0.478976 -0.038766 0.152727 
0.531321 0.583658 -0.03972 0.471143 -0.398109 -0.281049 0.451388 0.088821 0.058545 
0.477614 -0.203792 -0.319204 0.476958 -0.370344 -0.389806 0.503942 -0.196942 -0.393613 
0.452046 0.103694 0.182445 0.386383 -0.208446 -0.380276 0.372372 -0.261827 -0.31902 
0.3884 -0.236891 -0.445823 0.434435 -0.039718 0.130385 0.4048 -0.334716 -0.370306 
0.444729 -0.274668 -0.453143 0.366868 -0.333671 -0.326548 0.353216 0.028832 0.095766 
0.419198 0.043565 0.170289 0.341139 -0.028605 0.161443 0.351925 0.163943 0.142198 
0.310644 0.154115 0.078029 0.343067 -0.189051 -0.425435 0.269616 -0.378703 -0.420403 
0.284682 0.159547 0.210175 0.281771 0.08376 0.069641 0.348465 -0.387511 -0.374937 
0.270802 -0.485863 0.38168 0.280843 0.022387 0.16351 0.273575 0.019435 -0.060557 
0.240781 -0.250789 -0.440487 0.255508 -0.319416 -0.370245 0.300655 -0.359936 -0.455976 
0.239375 0.175225 -0.020277 0.352471 -0.292292 -0.490572 0.19367 -0.027961 0.230603 
0.265119 -0.038657 0.092287 0.212399 -0.455882 0.48233 0.204797 0.127005 -0.100237 
0.17711 -0.377241 0.425751 0.201697 -0.529221 0.542298 0.204705 -0.397179 0.338693 
0.135125 -0.582634 0.376216 0.168861 -0.486613 0.53307 0.252348 0.12873 0.23302 
0.189139 0.063864 0.290168 0.209848 0.002136 -0.095851 0.15819 -0.119705 -0.244988 
0.175806 0.246737 -0.024344 0.175197 -0.327952 0.35537 0.16369 -0.276964 -0.461087 
0.175799 -0.042129 -0.031375 0.153941 -0.025542 0.067295 0.18744 -0.336208 -0.355013 
0.178352 -0.494542 0.289368 0.166322 -0.187769 -0.376027 0.081155 -0.300239 -0.408536 
0.115159 0.271066 0.20234 0.118163 -0.037411 -0.223343 0.141568 0.165278 0.264714 
0.148374 -0.326638 0.427452 0.159878 -0.240347 -0.292293 0.128351 -0.362962 0.463218 
0.132946 -0.399521 0.300627 0.123011 -0.147062 -0.171494 0.118899 0.135636 -0.134273 
0.072075 0.184267 -0.099263 0.180136 0.300752 0.088469 0.131438 0.065316 0.282288 
0.108792 -0.526529 0.495537 0.064873 -0.228322 0.374742 0.086094 0.25072 0.003289 
0.070728 -0.556392 0.404993 0.105461 -0.432099 0.428318 0.097904 -0.340085 -0.372129 
0.012282 -0.07619 0.226539 0.091352 -0.186904 -0.411903 0.04625 0.279608 0.136298 
0.099112 -0.030817 -0.011811 0.127449 -0.004075 0.223351 0.120365 -0.263818 -0.25783 
0.06172 -0.112595 -0.140294 0.042958 -0.430248 0.36659 0.053496 0.325135 0.022955 
0.074831 0.151542 0.294376 0.065856 -0.2645 -0.261922 0.048968 -0.262308 0.439216 
0.074876 0.009501 0.079722 0.053132 -0.251338 0.33072 0.023903 -0.033039 -0.118574 
0.086113 -0.461188 0.374751 0.063509 -0.394468 0.447024 0.027641 0.087603 -0.080303 
0.048128 0.339068 0.078503 0.065272 -0.043862 -0.223314 0.014716 0.164331 -0.02793 
0.029918 -0.152112 0.344392 0.024986 -0.142067 -0.216978 0.016075 0.247814 0.22036 
0.045848 -0.084457 0.295195 -0.010622 -0.297389 0.33313 0.026932 0.26576 -0.073359 
-0.043761 -0.193792 0.285562 0.019052 -0.060469 0.36605 0.027208 -0.201109 -0.377469 
0.006971 0.228828 -0.010668 -0.049608 0.160535 -0.134954 0.019125 0.06166 0.121599 
0.007885 -0.255118 -0.321372 -0.00628 0.189948 0.225038 0.01036 0.118807 0.042504 
-0.010475 -0.164011 0.451522 -0.017542 0.163358 0.13077 -0.037854 -0.123553 0.437127 
-0.018252 -0.298385 0.431869 -0.03949 0.106686 0.195184 -0.05043 -0.040186 0.229118 
-0.0194 0.276905 -0.100082 -0.028664 0.400347 0.011209 -0.043433 -0.199853 0.470812 
-0.023504 0.0278 0.326271 -0.037207 0.303073 0.100985 -0.052756 0.162691 0.078531 
-0.013629 0.145414 -0.034233 -0.116387 -0.180388 0.427965 -0.097492 -0.259784 0.380293 
-0.073455 -0.009553 0.271525 -0.11941 -0.227106 0.323359 -0.06417 0.007539 -0.043705 
-0.083498 -0.253695 0.00817 -0.142385 -0.116897 0.301512 -0.106862 -0.054312 0.381769 
-0.089578 0.165 0.147162 -0.092756 -0.170496 0.274775 -0.078119 0.314348 -0.122514 
-0.123364 0.329844 0.128468 -0.157185 0.313281 -0.156566 -0.113349 -0.084554 -0.369616 
-0.149614 -0.275416 0.03808 -0.09686 0.408148 -0.010929 -0.140802 -0.156686 0.371986 
-0.210759 0.398114 -0.07258 -0.155038 0.012589 -0.279899 -0.174172 -0.187938 0.035722 
-0.139024 -0.062178 -0.266509 -0.150207 0.117905 -0.19591 -0.140918 0.020625 0.093921 
-0.133931 0.188675 0.180835 -0.143832 -0.063893 -0.416468 -0.221166 0.162358 -0.267552 
-0.187958 -0.100865 -0.388905 -0.169993 -0.230461 -0.089219 -0.195172 0.268752 -0.221369 
-0.157652 -0.132259 -0.365711 -0.215662 0.122002 0.168042 -0.18602 -0.067904 -0.260305 
-0.172556 -0.026998 0.055777 -0.191012 -0.368614 0.0033 -0.180421 0.014179 -0.193903 
-0.227013 -0.00212 -0.272442 -0.223409 0.017236 -0.096824 -0.256254 -0.317635 0.022726 
-0.226542 -0.054608 -0.061077 -0.124572 -0.131139 -0.436397 -0.15408 -0.301161 -0.034208 
-0.224491 -0.151464 0.054854 -0.210181 0.250017 0.162027 -0.259875 0.055626 -0.189364 
-0.215865 -0.161204 -0.069326 -0.287922 0.286905 0.095093 -0.210162 -0.336785 -0.081177 
-0.192134 0.355695 0.079711 -0.322129 0.337756 -0.133686 -0.264847 0.04855 0.139142 
-0.395573 0.266322 -0.171322 -0.30196 0.052452 0.010999 -0.281884 -0.048584 0.027886 
-0.283323 0.094344 -0.113194 -0.320421 0.359668 0.045183 -0.375715 -0.225854 0.079659 
-0.321206 0.108247 -0.202032 -0.33892 -0.292185 -0.027219 -0.227147 -0.226749 0.057272 
-0.307241 0.165762 -0.234518 -0.365163 -0.101343 -0.186828 -0.247324 -0.216027 -0.095008 
-0.348792 0.107251 0.143163 -0.312952 -0.239987 0.027735 -0.364953 0.231177 0.102815 
-0.304058 0.163228 0.152918 -0.416224 0.115376 -0.107876 -0.273757 -0.244426 -0.098745 
-0.399671 0.13363 0.103063 -0.349118 0.089877 0.078317 -0.440728 -0.079091 0.051505 
-0.428591 -0.189759 -0.189477 -0.403827 0.142851 -0.05978 -0.440661 -0.16824 0.008263 
-0.439694 -0.183057 -0.063531 -0.370496 -0.0458 -0.071481 -0.400425 -0.042853 -0.153419 
-0.418439 0.315194 0.001842 -0.388711 0.085585 -0.208988 -0.409945 0.268916 0.106395 
-0.474711 0.231839 0.007357 -0.366822 -0.265952 -0.108275 -0.452626 0.206423 -0.111346 
-0.448709 0.110285 -0.226989 -0.423859 0.122216 0.036809 -0.46936 -0.28279 -0.080578 
-0.484352 -0.034304 -0.18071 -0.403452 -0.037984 -0.004531 -0.496563 0.093262 -0.101627 
-0.484066 0.160437 0.058508 -0.490052 0.216556 0.101232 -0.524417 0.164997 0.190968 
-0.502546 -0.134663 0.052987 -0.507604 -0.014692 -0.054926 -0.490367 -0.22716 0.059293 
-0.504961 -0.188561 -0.183002 -0.494102 0.146651 -0.190976 -0.478897 -0.261553 -0.139839 
-0.523808 0.119297 0.089934 -0.51827 0.104738 0.167311 -0.549639 -0.04546 -0.140977 
-0.549631 -0.234037 -0.104106 -0.574775 -0.124668 -0.026661 -0.583151 0.196334 0.158954 
-0.677326 0.191988 0.146992 -0.70895 0.155514 0.193001 -0.626893 0.154782 0.119576 
-0.749118 0.135249 0.103515 -0.635313 0.101513 0.171582 -0.713132 0.094134 0.202145 

POLYGONS 501 1500
OFFSETS vtktypeint64
0 3 6 9 12 15 18 21 24 
27 30 33 36 39 42 45 48 51 
54 57 60 63 66 69 72 75 78 
81 84 87 90 93 96 99 102 105 
108 111 114 117 120 123 126 129 132 
135 138 141 144 147 150 153 156 159 
162 165 168 171 174 177 180 183 186 
189 192 195 198 201 204 207 210 213 
216 219 222 225 228 231 234 237 240 
243 246 249 252 255 258 261 264 267 
270 273 276 279 282 285 288 291 294 
297 300 303 306 309 312 315 318 321 
324 327 330 333 336 339 342 345 348 
351 354 357 360 363 366 369 372 375 
378 381 384 387 390 393 396 399 402 
405 408 411 414 417 420 423 426 429 
432 435 438 441 444 447 450 453 456 
459 462 465 468 471 474 477 480 483 
486 489 492 495 498 501 504 507 510 
513 516 519 522 525 528 531 534 537 
540 543 546 549 552 555 558 561 564 
567 570 573 576 579 582 585 588 591 
594 597 600 603 606 609 612 615 618 
621 624 627 630 633 636 639 642 645 
648 651 654 657 660 663 666 669 672 
675 678 681 684 687 690 693 696 699 
702 705 708 711 714 717 720 723 726 
729 732 735 738 741 744 747 750 753 
756 759 762 765 768 771 774 777 780 
783 786 789 792 795 798 801 804 807 
810 813 816 819 822 825 828 831 834 
837 840 843 846 849 852 855 858 861 
864 867 870 873 876 879 882 885 888 
891 894 897 900 903 906 909 912 915 
918 921 924 927 930 933 936 939 942 
945 948 951 954 957 960 963 966 969 
972 975 978 981 984 987 990 993 996 
999 1002 1005 1008 1011 1014 1017 1020 1023 
1026 1029 1032 1035 1038 1041 1044 1047 1050 
1053 1056 1059 1062 1065 1068 1071 1074 1077 
1080 1083 1086 1089 1092 1095 1098 1101 1104 
1107 1110 1113 1116 1119 1122 1125 1128 1131 
1134 1137 1140 1143 1146 1149 1152 1155 1158 
1161 1164 1167 1170 1173 1176 1179 1182 1185 
1188 1191 1194 1197 1200 1203 1206 1209 1212 
1215 1218 1221 1224 1227 1230 1233 1236 1239 
1242 1245 1248 1251 1254 1257 1260 1263 1266 
1269 1272 1275 1278 1281 1284 1287 1290 1293 
1296 1299 1302 1305 1308 1311 1314 1317 1320 
1323 1326 1329 1332 1335 1338 1341 1344 1347 
1350 1353 1356 1359 1362 1365 1368 1371 1374 
1377 1380 1383 1386 1389 1392 1395 1398 1401 
1404 1407 1410 1413 1416 1419 1422 1425 1428 
1431 1434 1437 1440 1443 1446 1449 1452 1455 
1458 1461 1464 1467 1470 1473 1476 1479 1482 
1485 1488 1491 1494 1497 1500 
CONNECTIVITY vtktypeint64
223 199 227 208 214 224 66 84 89 
119 123 141 119 124 135 192 222 219 
214 222 224 136 119 135 157 135 152 
189 159 190 189 190 196 196 190 219 
190 192 219 157 152 159 4 6 21 
21 6 18 21 18 16 239 223 227 
227 243 239 251 233 247 247 245 246 
233 245 247 172 187 207 191 172 207 
172 184 187 165 184 172 164 150 165 
127 130 133 130 127 116 38 85 42 
251 241 233 241 251 250 130 125 133 
125 134 133 42 62 46 46 36 42 
36 27 42 27 38 42 7 27 36 
7 9 27 125 93 134 97 93 105 
46 53 54 37 36 46 31 36 37 
70 53 97 54 31 37 62 42 75 
20 7 36 70 54 53 31 20 36 
77 116 127 102 127 138 77 127 102 
77 75 116 77 62 75 62 77 63 
138 127 144 127 133 144 86 77 102 
63 77 86 46 62 63 138 144 149 
144 133 134 121 97 86 97 63 86 
53 63 97 53 46 63 149 144 148 
148 134 151 134 148 144 93 151 134 
97 121 117 97 117 93 120 145 151 
93 120 151 93 117 120 117 114 120 
120 118 145 106 118 120 59 81 67 
59 72 81 86 102 138 86 138 121 
158 149 148 131 121 138 114 117 121 
148 151 158 114 121 131 114 106 120 
129 114 131 88 114 129 114 88 106 
104 88 129 151 145 158 143 142 158 
145 143 158 145 118 143 78 88 104 
67 106 88 78 67 88 100 132 143 
118 100 143 72 108 81 142 149 158 
131 138 149 188 175 199 81 118 106 
67 81 106 57 67 78 57 59 67 
41 92 68 94 74 122 122 74 126 
24 26 28 26 33 30 28 26 30 
29 24 28 30 40 28 73 94 76 
171 168 181 155 181 166 181 155 171 
160 155 166 17 25 33 52 32 50 
50 32 44 50 44 41 50 41 68 
68 92 74 33 32 52 30 33 52 
40 30 52 40 52 48 52 50 68 
48 52 68 48 68 73 73 68 94 
94 68 74 166 181 168 81 100 118 
81 108 100 57 45 59 59 45 72 
72 90 108 72 45 60 72 60 90 
142 131 149 132 137 142 137 129 142 
129 131 142 143 132 142 137 104 129 
109 132 100 104 137 132 109 104 132 
109 80 104 80 78 104 57 78 80 
108 109 100 91 109 108 91 80 109 
57 80 91 87 57 91 61 57 87 
55 57 61 55 45 57 90 91 108 
87 91 90 60 45 58 55 58 45 
90 60 87 58 87 60 58 55 61 
58 61 87 223 209 199 182 209 203 
169 182 203 169 147 182 209 188 199 
175 179 199 182 175 188 0 4 10 
0 6 4 189 157 159 153 157 189 
136 135 157 111 101 136 11 10 16 
18 11 16 8 10 11 8 0 10 
0 18 6 221 219 222 187 189 196 
5 13 12 7 2 9 218 228 220 
228 213 237 107 112 115 202 213 228 
56 65 76 76 112 83 160 176 162 
173 162 176 173 176 185 177 173 185 
176 160 163 163 160 167 167 160 177 
167 177 185 167 185 201 201 185 198 
225 220 228 225 228 238 163 167 170 
220 201 198 192 201 225 201 220 225 
192 225 238 124 163 170 170 167 201 
170 201 192 22 17 19 25 17 22 
19 17 24 5 2 7 194 191 204 
194 174 191 125 105 93 70 97 105 
54 37 46 23 31 35 23 13 31 
15 20 13 15 7 20 13 5 15 
5 7 15 54 35 31 13 20 31 
95 75 111 153 189 184 165 153 184 
150 153 165 150 139 153 116 75 95 
42 85 75 232 245 233 195 211 214 
113 128 141 119 141 124 84 110 113 
89 84 113 84 66 56 51 56 66 
208 230 235 195 193 211 178 193 195 
124 141 146 113 110 128 47 64 56 
47 56 51 235 242 244 229 208 235 
229 217 208 178 180 193 107 96 110 
47 69 64 183 186 217 176 146 180 
99 96 107 82 96 99 82 69 96 
47 54 69 147 169 186 216 223 239 
123 113 141 238 228 242 220 208 217 
119 136 123 200 212 197 146 164 174 
12 13 23 182 147 156 147 161 156 
156 161 200 175 156 200 175 200 179 
179 200 205 205 200 197 179 205 199 
199 205 197 199 197 236 199 236 227 
227 236 243 161 147 186 200 161 183 
161 186 183 200 183 212 183 229 212 
215 197 212 215 212 234 197 215 234 
197 234 236 236 234 244 243 236 244 
69 54 70 146 174 180 180 174 194 
183 217 229 212 235 244 234 212 244 
69 70 96 70 105 96 96 105 110 
180 194 193 193 194 211 212 229 235 
14 12 23 23 35 39 54 47 43 
47 51 43 110 105 128 198 208 220 
195 208 198 185 195 198 185 178 195 
124 146 163 83 112 110 56 76 83 
220 217 218 185 176 178 178 176 180 
163 146 176 112 107 110 56 64 65 
242 243 244 228 237 242 202 228 218 
217 202 218 217 186 202 99 107 115 
64 82 65 237 239 243 237 243 242 
213 239 237 213 216 239 209 213 202 
209 223 213 203 209 202 202 186 203 
186 169 203 213 223 216 208 195 214 
64 69 82 49 48 79 79 48 73 
29 48 49 29 40 48 28 40 29 
26 17 33 24 17 26 92 41 71 
71 49 79 41 44 71 44 49 71 
34 29 49 34 49 44 32 34 44 
33 25 32 177 166 168 160 166 177 
155 160 162 168 173 177 168 171 173 
171 162 173 155 162 171 76 122 112 
76 94 122 115 122 126 115 112 122 
76 65 73 79 73 65 126 103 115 
74 103 126 92 103 74 71 79 98 
182 188 209 92 98 103 71 98 92 
34 22 29 32 22 34 25 22 32 
19 29 22 79 65 82 240 250 248 
245 232 248 240 248 232 231 240 232 
231 226 240 206 233 210 204 206 210 
235 230 242 230 238 242 56 83 84 
84 83 110 21 16 10 230 208 224 
224 192 238 230 224 238 135 124 152 
152 124 154 154 124 170 170 192 190 
222 192 224 152 154 159 154 170 190 
154 190 159 19 24 29 98 79 82 
98 99 103 98 82 99 103 99 115 
204 207 206 164 140 150 140 139 150 
128 130 140 128 125 130 38 23 39 
14 23 38 27 14 38 9 14 27 
9 8 14 2 8 9 250 251 249 
248 250 249 240 241 250 240 226 241 
226 210 241 211 204 210 194 204 211 
172 191 174 174 164 172 105 125 128 
43 35 54 35 43 39 210 233 241 
251 247 249 191 207 204 164 165 172 
153 136 157 85 66 101 18 1 3 
0 1 18 221 222 232 136 101 123 
89 113 123 101 89 123 101 66 89 
39 51 66 11 3 14 3 11 18 
1 0 2 222 231 232 226 231 222 
226 222 214 214 211 226 141 128 140 
39 43 51 14 3 12 1 5 3 
1 2 5 211 210 226 164 141 140 
141 164 146 3 5 12 182 156 175 
221 196 219 85 38 39 246 245 248 
246 248 249 246 249 247 2 0 8 
8 11 14 85 39 66 116 95 130 
95 139 130 140 130 139 207 187 206 
206 187 196 206 196 221 206 221 233 
233 221 232 85 101 111 75 85 111 
111 136 139 95 111 139 139 136 153 
184 189 187 10 4 21 
POINT_DATA 252
SCALARS k float
LOOKUP_TABLE default
0.324634 0.645902 0.55551 -0.18324 0.620671 0.531923 0.320406 -0.0361389 -0.303076 
-0.508595 0.605135 -0.682693 -0.0592884 0.0991821 -1.52705 0.733995 0.419753 2.17834 
0.165288 1.01137 0.885988 3.93199 1.79529 -0.413769 1.09011 0.36328 1.29116 
0.0192499 -0.478096 0.201095 -0.249167 -0.368938 -0.867969 -0.365442 -0.957437 -0.106667 
-0.122336 0.518301 -0.640605 -0.852158 1.2809 0.162481 -0.302139 -0.200352 0.867125 
1.40499 -0.631765 0.850898 -1.6027 -1.22953 0.370582 -0.0717967 0.519833 0.81417 
-1.26948 0.149835 0.00787282 -0.992712 2.13632 0.00550318 1.02614 0.653774 -0.0890975 
0.699071 -0.681286 -0.523823 0.0371718 0.401643 0.178053 -0.570613 -0.0484926 -0.370223 
1.13758 -0.522039 0.159381 0.175454 -0.355986 -0.18819 0.182967 -0.450425 0.666558 
-0.0628771 -0.42804 -0.00939953 0.518858 0.297443 -0.782843 0.591344 -0.391955 -0.0781492 
1.38499 -1.23244 0.662664 -0.600785 0.382063 -0.617177 -0.460352 -1.11051 0.0418413 
-0.135102 0.364265 -0.49107 0.391166 0.102178 -0.446315 -0.776759 -0.449073 0.0929852 
-1.22774 0.334641 -0.339248 -0.307204 -0.263463 -2.01471 -0.914061 -0.14139 0.902685 
-0.447036 -0.349651 0.927684 -0.358093 -0.276687 0.553278 -0.444094 0.0824516 -0.161952 
0.895579 -0.254725 -0.627865 0.159547 -1.05859 -0.0549918 -0.194272 -0.0265736 -0.263576 
-0.0246195 0.192752 0.695849 -0.459778 -0.804268 -1.79858 -1.59681 0.441789 0.00882638 
-0.360168 0.611083 0.691173 2.55394 0.730281 0.578971 0.17125 0.0717301 0.159282 
0.291459 -0.133652 0.376809 -0.0268217 0.139734 0.128003 0.400152 -1.11742 -0.0454167 
0.503765 -0.475704 0.222225 0.47129 1.0428 -0.0813478 0.68334 0.793393 0.343843 
0.712644 -0.0506266 0.307696 0.249916 1.78409 -2.43342 -0.574029 -0.0266829 0.193415 
0.481713 3.23352 -0.498029 0.47818 0.261111 -0.87103 -0.156488 -0.130619 1.2293 
-0.147052 0.0610748 0.218198 0.149897 -0.0334983 0.946146 0.0816411 0.267887 -0.350133 
-0.94865 -0.767979 -0.229678 -0.29765 0.458572 -0.317716 0.36486 0.0052737 -0.354118 
0.114762 -2.42641 -0.547047 -1.54032 -0.339324 -0.0717001 -0.733504 -0.569319 1.72589 
3.30829 -0.513149 -0.868708 0.306926 -1.27353 -0.141815 -0.20648 -1.2064 -1.09441 
0.30642 -0.5816 0.27937 -0.386133 -0.441499 -0.108701 -0.346976 -0.927286 0.216147 
-0.360506 -0.26849 0.814372 0.472008 0.534022 -0.667608 -0.228914 0.360288 0.0634362 
0.726858 0.665587 -0.175584 0.601939 0.82512 -0.741543 3.21497 -0.1565 2.01611 

FIELD FieldData 7
h 1 252 float
-0.24999 -0.0894986 0.157379 0.702618 0.239911 0.583634 1.66 1.56737 0.805068 
0.845136 0.927531 -14.4083 1.22078 1.81186 -0.632792 1.29691 -1.65556 17.788 
0.519554 -0.540809 1.69312 -0.10539 -0.326903 -1.19697 9.04516 6.74419 0.0793188 
0.113586 -3.84584 -0.517168 1.1932 1.78786 0.970706 0.741209 -0.211382 0.752651 
2.46423 1.27542 0.997476 -0.747314 0.646568 1.50763 1.66287 0.882187 0.17701 
8.97141 1.34157 2.68511 -0.0762984 0.224135 18.0095 0.163568 1.05061 -0.344134 
-1.14121 2.41933 0.154736 0.749762 17.5986 8.54125 10.3228 6.63528 2.63242 
2.6158 1.21166 0.499622 -0.146357 11.5947 0.845378 -0.681714 -0.685287 -0.897626 
1.41592 0.346773 3.86362 1.86794 -0.0107862 1.08498 -0.830578 0.0452155 1.37821 
-1.24122 -1.84079 2.85124 1.47808 3.08848 1.81588 6.02624 -1.34197 -0.242477 
6.4579 -0.936839 0.212586 -0.326388 1.43481 0.542528 0.0374606 -1.05549 -0.957502 
1.07226 -0.186586 -0.638428 1.60135 1.05562 0.477121 -1.68468 -9.88031 -0.590889 
0.976118 1.24199 -0.804245 1.89027 2.25807 0.63914 0.0257534 1.2626 2.0056 
-4.21154 -0.433438 0.496655 0.0487113 0.983842 1.29641 -0.83813 1.75303 -2.18887 
0.523089 2.28401 -2.50922 0.411831 0.220928 -0.294419 6.43942 -1.26714 -1.32003 
1.08452 3.77363 1.1772 1.09684 -0.746104 -1.65767 -1.38303 6.27679 0.726501 
2.52425 -0.845667 1.05074 1.42113 0.212036 8.15439 0.703563 1.26808 1.82238 
0.351883 2.73393 -0.131313 3.8317 4.43266 1.08879 3.89801 3.45308 4.35851 
0.625311 2.20086 1.09828 4.22947 1.02788 4.45705 1.0196 -0.201844 3.52593 
1.75671 3.71102 0.82506 1.5436 0.62685 -0.178565 0.283141 -1.34867 4.01681 
1.5242 11.5488 0.0640904 -1.61777 2.93501 0.485418 2.49804 3.88147 1.34599 
3.47438 3.36915 2.64932 3.30505 -2.55076 2.14071 -2.5547 4.10998 4.84996 
0.770009 5.44463 2.27831 3.12855 1.82211 0.0112465 3.81891 2.97055 3.55223 
3.8484 -2.74181 0.224507 0.536834 0.239333 3.06992 0.724418 -0.319555 -0.252679 
-0.767964 -2.02107 0.645823 3.84183 -1.60354 6.50175 1.52805 2.01075 3.06135 
3.10393 -2.15607 9.69104 2.45455 -0.511097 2.02429 -0.773041 0.163036 3.04026 
0.107188 2.37826 6.3166 2.95001 3.56434 -0.0397086 0.986355 0.823237 4.07754 
9.1786 6.33251 0.302421 1.56765 1.25092 0.736538 0.631221 -0.396331 0.957699 

kmin 1 252 float
0.0298636 0.442758 1.11042 1.97875 0.634822 1.69194 2.60883 4.53598 1.81254 
1.75264 1.418 -0.813069 1.97188 2.68953 3.06251 3.58213 -0.518792 27.3469 
1.42028 0.463964 3.46563 -0.0305706 0.828325 0.634321 20.8561 12.2846 1.09478 
0.671125 1.92413 3.31074 2.25805 2.6502 3.21093 2.65026 0.496083 1.6159 
4.66643 2.67738 3.03861 -0.0771205 2.07311 2.3636 3.28154 3.14797 0.694331 
18.2992 3.5632 7.83381 2.1286 0.803696 35.3708 1.62559 2.6515 1.00451 
1.7205 5.67949 0.855098 2.01297 31.5715 19.1248 21.892 16.2677 5.93065 
5.51119 4.69406 2.37913 0.423517 25.7312 1.81311 0.681923 1.67939 -0.176088 
4.1386 1.08881 5.32971 3.41936 0.222541 2.42709 1.37442 1.90685 2.599 
0.0734969 -0.791245 6.29698 2.48864 5.94879 6.42425 13.0651 -0.288031 0.859671 
13.4731 1.04405 0.878492 0.730816 3.60077 2.06969 1.51067 -0.0922081 -0.660571 
2.0011 0.432362 0.26007 2.80093 2.41705 1.16268 0.740553 -2.42341 0.844221 
1.6337 2.36974 -0.317701 3.34551 4.32862 2.66559 0.848941 2.01098 3.80208 
-1.20403 0.998656 1.73331 0.802994 2.52984 2.7441 0.825654 2.83641 -1.19312 
1.22564 4.15613 -0.347422 1.44322 1.61651 0.588444 11.5331 -0.771658 0.061083 
1.66573 6.43669 1.74596 1.7828 0.29371 -0.464581 0.999277 11.5049 1.66049 
4.44985 -0.266488 2.80329 4.23106 1.22481 14.7957 2.63941 1.92998 2.98382 
1.14359 4.25575 1.12099 7.41315 6.89788 2.36186 5.2088 7.16835 9.09149 
0.996574 3.73723 2.04693 8.89981 2.34057 6.43434 2.78452 0.0404792 4.47625 
4.06043 7.5142 1.02256 2.78062 1.65199 1.72769 0.789801 -0.143644 6.3397 
2.27445 17.4623 0.849767 -0.244064 5.4144 2.09063 4.34054 7.56374 2.562 
5.054 4.85097 4.7956 4.0835 -1.80445 4.22683 -1.42737 6.26418 6.67556 
1.35875 8.04136 3.49202 3.96884 3.39444 0.605788 5.1502 6.1995 7.54921 
7.53339 -1.65708 1.34158 1.56102 1.41702 5.72769 2.06562 1.39896 1.44978 
0.363747 -0.798263 1.03982 5.44351 -0.758239 11.8564 1.89678 2.71419 4.32109 
3.23188 -0.95542 17.0166 3.62892 0.727657 3.03564 0.0622399 1.05402 6.63601 
1.26114 5.25388 9.03009 5.55696 5.22322 0.851771 1.90573 2.56563 4.69418 
13.7147 12.4727 2.04141 3.41982 2.75023 1.24145 1.96628 0.669989 2.65622 

kmax 1 252 float
-0.529843 -0.621755 -0.795663 -0.573509 -0.155001 -0.524676 0.711172 -1.40124 -0.202405 
-0.0623676 0.437065 -28.0036 0.469679 0.934189 -4.32809 -0.988302 -2.79232 8.22902 
-0.381169 -1.54558 -0.0793811 -0.180209 -1.48213 -3.02825 -2.76572 1.20377 -0.936143 
-0.443953 -9.61582 -4.34508 0.128343 0.925511 -1.26952 -1.16784 -0.918847 -0.110597 
0.26203 -0.126544 -1.04366 -1.41751 -0.779975 0.651671 0.0441924 -1.3836 -0.340312 
-0.356382 -0.880063 -2.46359 -2.2812 -0.355427 0.648106 -1.29846 -0.55028 -1.69278 
-4.00292 -0.840835 -0.545627 -0.513448 3.62574 -2.04228 -1.24628 -2.99715 -0.665812 
-0.279588 -2.27074 -1.37988 -0.716231 -2.54179 -0.122356 -2.04535 -3.04996 -1.61916 
-1.30675 -0.395264 2.39752 0.316511 -0.244114 -0.257132 -3.03558 -1.81641 0.157417 
-2.55594 -2.89033 -0.594496 0.467527 0.228161 -2.79249 -1.01262 -2.3959 -1.34463 
-0.557261 -2.91773 -0.45332 -1.38359 -0.731151 -0.984638 -1.43574 -2.01878 -1.25443 
0.14342 -0.805535 -1.53693 0.401771 -0.305807 -0.208434 -4.10991 -17.3372 -2.026 
0.31854 0.114247 -1.29079 0.435028 0.18752 -1.38731 -0.797435 0.514218 0.209119 
-7.21904 -1.86553 -0.74 -0.705571 -0.562156 -0.151282 -2.50191 0.669643 -3.18463 
-0.17946 0.411895 -4.67101 -0.619557 -1.17465 -1.17728 1.3457 -1.76263 -2.70115 
0.503301 1.11058 0.608435 0.410888 -1.78592 -2.85076 -3.76534 1.04865 -0.207485 
0.598663 -1.42485 -0.701806 -1.38881 -0.800741 1.51308 -1.23229 0.606189 0.660927 
-0.439829 1.21211 -1.38361 0.25026 1.96744 -0.184274 2.58722 -0.262194 -0.374476 
0.254048 0.664484 0.149639 -0.440875 -0.284802 2.47976 -0.74531 -0.444167 2.57561 
-0.547013 -0.0921552 0.627564 0.306581 -0.398287 -2.08482 -0.223519 -2.55369 1.69392 
0.773943 5.63526 -0.721586 -2.99147 0.455625 -1.11979 0.655537 0.199211 0.129985 
1.89475 1.88732 0.503039 2.52659 -3.29708 0.054586 -3.68204 1.95578 3.02436 
0.181264 2.8479 1.06461 2.28826 0.249771 -0.583295 2.48763 -0.2584 -0.444758 
0.163418 -3.82654 -0.892567 -0.487354 -0.938354 0.41216 -0.616789 -2.03806 -1.95514 
-1.89967 -3.24388 0.251827 2.24014 -2.44884 1.14711 1.15931 1.30732 1.80162 
2.97597 -3.35672 2.36546 1.28017 -1.74985 1.01294 -1.60832 -0.727952 -0.555497 
-1.04677 -0.497357 3.60311 0.343052 1.90547 -0.931188 0.0669767 -0.919156 3.4609 
4.64245 0.192293 -1.43657 -0.284526 -0.248386 0.231627 -0.70384 -1.46265 -0.740825 

hks 16 252 double
0.63825623365 0.64962083769 0.66090134668 0.67206176412 0.68306750657 0.69388568225 0.70448531534 0.71483751443 0.72491558578 
0.73469509385 0.74415387296 0.75327199541 0.76203170209 0.77041730212 0.778415048 0.78601299246 0.49849934982 0.50679456806 
0.51541889671 0.52433155657 0.53348927396 0.54284692919 0.55235820631 0.56197622624 0.57165414688 0.58134571643 0.59100576909 
0.60059065503 0.61005859992 0.61936999196 0.62848759735 0.63737670693 0.42761536059 0.43411850795 0.44091450444 0.44798415806 
0.4553049194 0.46285121174 0.47059481569 0.47850529363 0.48655043875 0.49469673368 0.50290980404 0.51115485437 0.51939707537 
0.52760201381 0.53573589896 0.5437659219 0.44536975441 0.45119362501 0.45744254824 0.46408830967 0.47109829178 0.47843604408 
0.48606191787 0.49393374323 0.50200752534 0.5102381372 0.51857998799 0.52698764799 0.53541641457 0.54382280744 0.55216498496 
0.56040307779 0.80936450561 0.81783523267 0.82606953412 0.83405133868 0.84176656523 0.84920302355 0.85635028432 0.86319952583 
0.86974336504 0.87597567933 0.88189142534 0.88748645979 0.89275736658 0.89770129333 0.9023157996 0.90659871807 0.40003791827 
0.40300169272 0.40613392756 0.40944233262 0.41293252921 0.41660783541 0.42046909808 0.42451457536 0.4287398716 0.43313792507 
0.43769904732 0.4424110115 0.44725918581 0.45222670716 0.45729468927 0.46244245884 0.79666591422 0.80554522178 0.81419446438 
0.82259522681 0.83073111544 0.83858768944 0.84615235975 0.85341426279 0.86036411576 0.86699405939 0.87329749406 0.8792689136 
0.88490374112 0.89019816954 0.89514900953 0.89975354602 0.3499556249 0.35109543363 0.35234846182 0.35372132957 0.35521969538 
0.35684816829 0.35861022787 0.36050815181 0.36254295134 0.36471431506 0.36702056233 0.36945860749 0.37202393654 0.37471059797 
0.37751120909 0.38041697929 0.48734249253 0.49470193855 0.5024614862 0.51058199147 0.51902027585 0.5277298914 0.5366619324 
0.54576586597 0.55499035519 0.56428404936 0.57359631898 0.58287791635 0.5920815472 0.60116234293 0.61007822802 0.61879018173 
0.36480973053 0.36782389384 0.37117678935 0.37485892376 0.37885747297 0.3831564489 0.38773692919 0.39257734225 0.39765379773 
0.40294045094 0.40840988851 0.4140335222 0.41978197784 0.42562546752 0.43153413455 0.43747836285 0.71928930173 0.72934726689 
0.73922260753 0.74888942087 0.75832427163 0.76750614474 0.77641634656 0.78503836575 0.7933577049 0.80136169363 0.80903929242 
0.81638089546 0.82337813902 0.83002372 0.83631122805 0.84223499275 0.53293183803 0.54332790523 0.55383385911 0.56440936385 
0.57501375586 0.58560656605 0.59614800362 0.60659938948 0.61692353049 0.62708502829 0.6370505202 0.64678885207 0.65627118611 
0.66547104842 0.67436432295 0.68292919944 0.36116434231 0.36289542644 0.36482478686 0.36695388864 0.36928259635 0.3718091205 
0.37452998432 0.37744001192 0.38053233804 0.38379843944 0.38722818712 0.39080991836 0.39453052683 0.39837556865 0.40232938217 
0.40637521874 0.35887932169 0.35806088881 0.35731230715 0.35664422794 0.35606682589 0.35558969801 0.355221765 0.35497117392 
0.35484520125 0.35485015621 0.35499128478 0.35527267581 0.35569717123 0.35626628306 0.3569801203 0.35783732885 0.31433909454 
0.3190641764 0.32399689617 0.32912542331 0.33443597067 0.33991298744 0.34553937961 0.35129674964 0.35716564669 0.36312581909 
0.36915646071 0.37523644443 0.3813445365 0.38745958737 0.39356069595 0.3996273459 0.37743980025 0.37716457525 0.37697524073 
0.37688525965 0.37690738063 0.37705345431 0.37733425544 0.37775931197 0.37833674299 0.37907310781 0.379973269 0.38104027251 
0.38227524841 0.3836773356 0.38524363381 0.38696918548 0.72551223059 0.73553221243 0.74536319967 0.75498039244 0.76436112851 
0.77348490253 0.78233333515 0.79089009852 0.79914080579 0.80707287252 0.8146753581 0.8219387947 0.82885501081 0.83541695541 
0.84161852759 0.84745441532 0.74533517272 0.75593773437 0.7663988886 0.77669318825 0.78679619847 0.79668459622 0.80633625863 
0.81573034301 0.82484736116 0.83366925016 0.8421794417 0.85036293107 0.85820634672 0.8656980201 0.87282805507 0.87958839494 
0.66125241653 0.67228484818 0.68321245635 0.69400073471 0.70461723219 0.71503165269 0.72521590326 0.73514409897 0.74479253266 
0.75413961748 0.763165809 0.77185351272 0.78018698131 0.78815220483 0.79573679608 0.80292987195 0.74398602108 0.75170334691 
0.75961783477 0.7676862527 0.77586427643 0.78410711616 0.79237013514 0.80060944588 0.80878247118 0.81684845881 0.8247689404 
0.83250812757 0.84003324049 0.8473147665 0.85432664874 0.86104640642 0.33471539035 0.33400902818 0.3333084769 0.33262427487 
0.33196674097 0.33134592071 0.33077153803 0.33025294809 0.32979908671 0.32941841267 0.32911884036 0.32890766136 0.32879145519 
0.32877599067 0.32886612085 0.32906567535 0.80846886139 0.81729410547 0.82581385185 0.83402058394 0.84190836394 0.8494726324 
0.85671000469 0.86361807044 0.87019520073 0.87644036662 0.88235297175 0.88793270076 0.89317938437 0.89809288135 0.90267297692 
0.90691929659 0.59487974602 0.60637994962 0.61792239825 0.62947022912 0.64098622957 0.6524333149 0.6637750004 0.67497585514 
0.68600192565 0.69682111947 0.70740354046 0.71772176981 0.7277510893 0.73746964542 0.74685855504 0.75590195518 0.29276621823 
0.29177391883 0.29087889276 0.2900803575 0.28937657566 0.2887650336 0.28824263303 0.28780588653 0.28745110811 0.28717459058 
0.28697276239 0.28684231816 0.28678031814 0.28678425367 0.28685207727 0.28698219747 0.74836633128 0.75746143123 0.7665404728 
0.77557507845 0.78453687888 0.79339776739 0.80213015058 0.81070719177 0.81910304424 0.82729307151 0.83525405274 0.84296437163 
0.85040418769 0.85755558903 0.86440272574 0.87093192306 0.63694120924 0.64691620593 0.65708356771 0.66739873984 0.67781519184 
0.68828523662 0.69876085816 0.70919452059 0.71953993381 0.72975275402 0.73979120125 0.74961658107 0.75919370236 0.76849118771 