# vtk DataFile Version 5.1
vtk output
ASCII
DATASET POLYDATA
POINTS 252 float
0.801261 0.207022 -0.018892 0.78343 0.124934 -0.180839 0.80996 -0.066075 0.13948 
0.796005 0.238574 -0.082485 0.771989 0.084934 0.212871 0.765108 0.155882 -0.241946 
0.73831 -0.134267 0.173669 0.798054 -0.096551 0.185277 0.715019 -0.174222 0.03107 
0.720124 0.223697 0.097611 0.637571 0.256187 -0.037067 0.748585 0.175882 -0.197838 
0.715883 -0.23033 0.017823 0.740803 0.222985 0.139012 0.716994 -0.210074 0.081819 
0.637119 0.198181 -0.010347 0.582944 0.114988 -0.175398 0.752727 0.104296 -0.212349 
0.623191 -0.205882 -0.002315 0.702848 -0.00565 -0.173535 0.686493 0.112308 0.220328 
0.680881 0.1212 -0.244645 0.80633 0.251483 -0.02442 0.554004 -0.047821 -0.188055 
0.738309 0.267012 0.157899 0.7466 0.047112 0.200119 0.736024 0.283977 0.089938 
0.699585 0.085053 0.172051 0.589765 -0.091257 0.187341 0.685978 0.020096 -0.209669 
0.621917 -0.244847 0.03911 0.72443 -0.043448 -0.21634 0.690591 -0.00617 -0.241687 
0.531234 0.271885 0.089995 0.65154 0.081203 0.246859 0.500242 0.282967 0.139841 
0.672213 0.188285 -0.074171 0.563777 -0.147046 0.129393 0.498142 -0.238797 0.009211 
0.59796 0.241341 -0.077353 0.769327 -0.122878 0.119643 0.58535 -0.076746 0.160752 
0.566547 0.104282 0.188747 0.449523 0.01166 -0.182228 0.427357 -0.18169 0.011625 
0.4816 0.232095 -0.014892 0.445474 -0.185258 0.054417 0.330307 0.190933 -0.028511 
0.600846 -0.088955 0.121773 0.426901 0.255088 -0.046932 0.404494 -0.034684 -0.23216 
0.529096 -0.223248 0.067361 0.571023 0.042406 0.195698 0.619633 0.146974 -0.175131 
0.491103 0.185585 -0.060167 0.468293 -0.00585 -0.170689 0.579311 -0.137071 0.186007 
0.392162 0.237477 -0.084144 0.589445 0.039261 0.226376 0.376297 -0.223751 -0.001981 
0.326369 0.213205 0.141279 0.441169 0.009628 -0.233305 0.420024 -0.165011 0.147492 
0.411492 0.284585 0.111766 0.348649 -0.111438 0.189686 0.367801 0.163852 -0.188608 
0.436836 0.099163 -0.204535 0.495686 0.064824 0.179264 0.307967 0.084662 0.193643 
0.404094 0.033325 0.214906 0.307832 0.034003 -0.202883 0.197297 -0.230199 0.065827 
0.410445 0.110383 -0.242208 0.261162 0.252738 -0.059343 0.35327 -0.150324 0.192938 
0.35779 -0.113984 0.123229 0.377112 -0.483653 -0.082062 0.330439 -0.351142 -0.13269 
0.347352 -0.48311 -0.039737 0.216134 0.243691 0.165227 0.4484 0.214523 0.098599 
0.346121 -0.473385 -0.113508 0.40652 0.204665 -0.081515 0.18987 -0.014265 -0.24067 
0.502103 0.167798 -0.230895 0.302192 -0.005952 -0.166957 0.414442 0.245819 0.159957 
0.418735 -0.041043 -0.198335 0.290435 -0.192342 0.001056 0.319617 0.231609 -0.014513 
0.353415 0.106262 0.233406 0.245452 -0.188832 0.045266 0.302476 -0.481816 -0.087158 
0.278303 0.039787 0.242534 0.382308 0.06829 0.247732 0.291201 -0.328465 -0.070915 
0.313324 -0.474392 -0.042484 0.291427 0.131887 -0.245177 0.380912 -0.139296 0.121313 
0.388175 -0.09515 0.165459 0.29013 -0.68511 -0.053095 0.272899 -0.690666 0.002356 
0.260305 -0.360399 -0.093049 0.230161 -0.3268 -0.132514 0.161416 0.017805 -0.232962 
0.121118 0.167883 -0.216576 0.239406 0.182628 -0.066941 0.184445 -0.778958 0.01572 
0.255259 -0.611626 -0.075573 0.313886 -0.31266 -0.104081 0.307619 0.253676 0.090439 
0.217093 -0.795395 -0.044107 0.159697 -0.267723 -0.103185 0.236721 -0.811985 0.01788 
0.297094 0.1362 -0.173118 0.274813 0.040136 0.18579 0.219048 0.285842 0.125392 
0.168041 0.031515 0.223167 0.198577 -0.251496 0.041524 0.117812 0.244357 -0.019198 
0.135504 -0.184319 0.027946 0.171287 -0.205641 -0.150961 0.016382 0.19854 -0.013503 
0.12411 0.106711 -0.181489 0.033804 0.038468 0.189269 0.105007 0.216392 0.09772 
0.076886 0.139239 -0.239608 0.094882 0.179442 -0.060805 0.125324 -0.049679 -0.214593 
0.166013 -0.037852 -0.189899 0.09574 0.092618 -0.231724 0.117979 0.006163 -0.184339 
0.035043 -0.23331 -0.130542 0.185404 -0.227829 -0.091956 0.135541 -0.15893 0.198509 
0.137009 -0.137798 0.131863 0.087341 -0.172191 0.157583 0.081082 0.027158 0.016502 
0.02745 0.231918 -0.084774 0.043375 -0.100359 -0.058702 -0.012545 -0.14317 0.192443 
0.067224 0.149307 -0.178126 0.184469 -0.258525 -0.159522 0.136461 0.084891 0.246287 
0.046733 0.133812 0.03612 0.048777 -0.169064 -0.162172 0.166453 -0.232606 -0.000517 
-0.017282 -0.047619 -0.229663 -0.020607 -0.196472 0.065618 0.05735 0.090029 -0.206388 
0.02424 0.166173 -0.066366 -0.049262 -0.058815 -0.173849 0.034357 0.25721 0.082888 
0.044713 0.043426 0.102018 0.063728 0.094115 0.189388 -0.004684 0.010816 -0.202721 
0.067052 -0.106841 0.185297 0.06176 0.0626 -0.073054 0.037139 -0.107222 0.076949 
-0.033687 0.107174 -0.223675 -0.005644 -0.076125 0.140948 -0.021217 -0.189991 -0.079479 
-0.035956 -0.21115 -0.007199 0.110207 -0.104037 0.15073 0.004804 -0.18307 0.019358 
-0.105231 0.255866 0.074687 -0.028297 0.200924 0.088088 -0.018717 0.20903 -0.084913 
-0.012522 0.107912 -0.14838 -0.010733 0.205219 0.129615 0.013849 -0.025343 -0.164239 
0.048323 -0.15784 -0.118385 -0.009944 0.032241 0.231014 0.057682 0.277866 0.148179 
0.014054 0.028017 -0.130232 -0.018853 -0.200398 -0.16138 -0.080224 -0.229379 0.064592 
-0.028225 0.066634 0.163117 -0.083461 0.160167 -0.173794 -0.031152 0.098711 0.214591 
-0.099101 -0.164563 0.154432 -0.090051 0.26169 -0.068606 -0.004234 -0.164131 -0.049488 
-0.053436 0.185331 0.115823 -0.046106 0.254672 -0.033398 -0.071913 0.108013 0.165288 
-0.032241 0.081951 0.244148 -0.111505 0.24395 0.135795 -0.105142 0.01579 0.196158 
-0.107406 -0.148273 -0.138117 -0.107247 -0.085413 0.188989 -0.075822 -0.238912 0.016469 
-0.104652 0.051675 -0.189957 -0.186914 0.27512 -0.092427 -0.123639 0.05517 0.227227 
-0.182619 -0.243466 -0.032975 -0.169291 0.128557 -0.196866 -0.147167 0.28972 -0.011659 
-0.143609 -0.022699 -0.208343 -0.144128 -0.211031 -0.127294 -0.212263 0.099468 0.189556 
-0.170915 0.210858 -0.156798 -0.340296 -0.033064 0.197441 -0.208295 0.029173 -0.194727 
-0.137205 -0.081734 -0.175646 -0.2538 -0.195613 -0.108906 -0.176969 -0.255968 0.060702 
-0.389626 0.069972 -0.19944 -0.312536 -0.073872 0.199139 -0.17778 -0.178893 0.166445 
-0.206809 0.215428 0.123615 -0.304132 0.213796 -0.155568 -0.482362 0.2676 -0.09616 
-0.416253 -0.184755 0.16416 -0.460234 0.142614 -0.186906 -0.196667 0.271625 0.055613 
-0.467598 0.205819 0.126092 -0.552454 0.093959 0.191237 -0.67027 -0.197881 -0.108733 
-0.339686 0.009066 0.205283 -0.388838 -0.247245 -0.032475 -0.437491 0.286018 -0.003998 
-0.452449 -0.259611 0.065201 -0.67791 -0.25133 -0.030342 -0.59727 0.20745 -0.159211 
-0.614803 -0.184854 0.164489 -0.621094 -0.262161 0.061309 -0.527639 -0.118215 -0.167208 
-0.680324 -0.215115 0.125097 -0.633068 0.251601 0.084967 -0.657385 0.011199 0.20606 
-0.656745 0.268812 -0.079032 -0.683907 0.275633 0.001686 -0.666748 -0.062804 0.201796 
-0.680799 0.119039 -0.187099 -0.702616 0.016896 -0.192755 -0.685332 0.155165 0.155494 
-0.740351 -0.035853 0.190786 -0.739337 0.213261 -0.129341 -0.768938 0.237262 0.03301 
-0.75446 -0.120892 -0.135083 -0.821022 -0.06232 -0.116476 -0.811 0.039035 0.143371 
-0.800588 0.064476 -0.150796 -0.824879 -0.164794 -0.022925 -0.774801 0.163842 0.110373 
-0.794888 -0.12802 0.135282 -0.78321 -0.202564 0.05974 -0.849163 0.152525 -0.055693 
-0.866526 -0.070906 0.067648 -0.8736 0.075521 0.055544 -0.874566 0.038648 -0.077013 

POLYGONS 501 1500
OFFSETS vtktypeint64
0 3 6 9 12 15 18 21 24 
27 30 33 36 39 42 45 48 51 
54 57 60 63 66 69 72 75 78 
81 84 87 90 93 96 99 102 105 
108 111 114 117 120 123 126 129 132 
135 138 141 144 147 150 153 156 159 
162 165 168 171 174 177 180 183 186 
189 192 195 198 201 204 207 210 213 
216 219 222 225 228 231 234 237 240 
243 246 249 252 255 258 261 264 267 
270 273 276 279 282 285 288 291 294 
297 300 303 306 309 312 315 318 321 
324 327 330 333 336 339 342 345 348 
351 354 357 360 363 366 369 372 375 
378 381 384 387 390 393 396 399 402 
405 408 411 414 417 420 423 426 429 
432 435 438 441 444 447 450 453 456 
459 462 465 468 471 474 477 480 483 
486 489 492 495 498 501 504 507 510 
513 516 519 522 525 528 531 534 537 
540 543 546 549 552 555 558 561 564 
567 570 573 576 579 582 585 588 591 
594 597 600 603 606 609 612 615 618 
621 624 627 630 633 636 639 642 645 
648 651 654 657 660 663 666 669 672 
675 678 681 684 687 690 693 696 699 
702 705 708 711 714 717 720 723 726 
729 732 735 738 741 744 747 750 753 
756 759 762 765 768 771 774 777 780 
783 786 789 792 795 798 801 804 807 
810 813 816 819 822 825 828 831 834 
837 840 843 846 849 852 855 858 861 
864 867 870 873 876 879 882 885 888 
891 894 897 900 903 906 909 912 915 
918 921 924 927 930 933 936 939 942 
945 948 951 954 957 960 963 966 969 
972 975 978 981 984 987 990 993 996 
999 1002 1005 1008 1011 1014 1017 1020 1023 
1026 1029 1032 1035 1038 1041 1044 1047 1050 
1053 1056 1059 1062 1065 1068 1071 1074 1077 
1080 1083 1086 1089 1092 1095 1098 1101 1104 
1107 1110 1113 1116 1119 1122 1125 1128 1131 
1134 1137 1140 1143 1146 1149 1152 1155 1158 
1161 1164 1167 1170 1173 1176 1179 1182 1185 
1188 1191 1194 1197 1200 1203 1206 1209 1212 
1215 1218 1221 1224 1227 1230 1233 1236 1239 
1242 1245 1248 1251 1254 1257 1260 1263 1266 
1269 1272 1275 1278 1281 1284 1287 1290 1293 
1296 1299 1302 1305 1308 1311 1314 1317 1320 
1323 1326 1329 1332 1335 1338 1341 1344 1347 
1350 1353 1356 1359 1362 1365 1368 1371 1374 
1377 1380 1383 1386 1389 1392 1395 1398 1401 
1404 1407 1410 1413 1416 1419 1422 1425 1428 
1431 1434 1437 1440 1443 1446 1449 1452 1455 
1458 1461 1464 1467 1470 1473 1476 1479 1482 
1485 1488 1491 1494 1497 1500 
CONNECTIVITY vtktypeint64
4 25 27 42 67 68 68 115 154 
117 124 115 219 217 230 188 219 202 
34 20 42 34 42 90 42 68 90 
31 23 50 143 90 154 143 154 179 
143 179 186 194 186 200 34 4 20 
4 27 20 25 34 58 52 69 67 
52 58 69 94 34 90 58 94 93 
94 90 143 93 94 143 93 143 186 
93 186 172 172 186 194 188 172 194 
188 194 200 219 200 217 4 34 25 
25 58 52 58 34 94 69 58 93 
69 93 115 115 93 117 172 117 93 
124 117 172 124 172 188 188 200 219 
164 146 162 162 146 191 191 146 118 
88 146 120 146 59 118 88 59 146 
59 38 118 44 18 59 18 38 59 
18 12 38 12 30 38 18 8 12 
12 8 14 182 164 162 158 164 182 
139 158 182 146 164 120 91 88 120 
44 59 88 44 88 91 44 91 46 
46 8 44 8 18 44 250 251 249 
244 249 251 137 158 139 157 137 139 
137 157 150 85 131 129 239 238 248 
167 127 150 127 122 150 138 127 167 
47 122 127 106 127 138 57 106 138 
47 127 106 82 106 57 207 203 227 
131 104 155 131 70 104 104 70 83 
43 61 70 196 203 207 196 192 203 
192 196 159 130 149 159 126 130 159 
130 123 149 97 130 126 97 72 130 
72 66 130 158 135 136 21 66 72 
21 17 66 5 17 21 5 1 17 
178 159 196 126 159 178 97 126 105 
105 84 97 84 72 97 84 21 72 
84 5 21 5 84 11 11 84 65 
53 11 65 89 49 73 239 232 238 
12 14 30 55 43 85 30 51 118 
38 30 118 118 71 176 191 176 206 
220 222 223 223 222 226 223 226 247 
118 176 191 220 206 222 10 49 45 
49 89 45 89 73 119 197 184 181 
184 197 165 165 197 215 221 197 193 
193 212 221 229 215 221 229 221 232 
221 231 232 3 22 0 0 22 15 
45 22 10 22 45 15 36 15 54 
15 45 47 15 47 54 47 45 89 
47 89 122 122 89 119 108 111 107 
113 107 111 108 100 111 108 81 100 
81 76 100 92 81 108 92 102 103 
103 81 92 77 76 81 81 103 142 
109 76 77 81 142 77 142 103 132 
103 112 132 77 142 121 109 77 121 
189 175 199 145 175 189 145 142 175 
142 132 175 171 121 145 121 142 145 
205 227 204 227 240 235 11 1 5 
56 64 74 56 28 64 7 28 56 
6 7 56 225 233 237 208 202 233 
190 202 208 190 188 202 160 188 190 
156 160 190 163 160 156 64 28 99 
28 41 99 28 2 41 7 2 28 
40 2 7 202 230 233 202 219 230 
160 177 188 233 236 237 230 236 233 
177 124 188 177 153 185 154 124 177 
115 124 154 67 115 68 67 69 115 
27 52 67 27 67 42 27 25 52 
56 74 62 6 56 37 26 13 9 
26 24 13 187 173 165 173 152 165 
173 116 152 116 110 152 105 126 141 
234 207 235 53 65 114 65 84 105 
65 105 141 114 65 141 141 126 178 
168 141 178 201 178 196 201 196 211 
211 196 214 224 211 214 224 214 234 
224 234 238 1 11 53 1 53 16 
17 1 16 66 17 16 16 53 114 
16 114 123 16 123 66 66 123 130 
114 141 123 123 141 168 149 123 168 
149 168 174 149 174 159 196 207 214 
234 214 207 234 243 238 159 174 192 
234 235 243 63 110 116 35 63 116 
63 33 110 35 33 63 26 33 35 
24 26 35 222 213 225 228 237 246 
225 237 228 136 140 180 158 136 180 
75 135 163 98 62 136 148 180 176 
75 98 135 98 136 135 99 75 163 
98 37 62 75 37 98 48 37 75 
40 37 48 37 56 62 40 6 37 
40 7 6 163 158 160 163 135 158 
99 48 75 99 41 48 2 48 41 
2 40 48 249 246 242 237 242 246 
160 153 177 158 153 160 245 250 242 
153 144 166 250 245 239 166 169 183 
239 229 232 152 166 165 166 152 169 
216 215 229 215 197 221 54 106 82 
54 47 106 54 82 39 36 54 39 
36 0 15 85 43 70 174 155 192 
87 23 55 85 70 131 131 155 170 
243 235 240 204 189 205 227 218 240 
23 19 55 19 29 43 55 19 43 
55 85 87 129 131 170 174 139 170 
170 155 174 243 240 241 243 241 251 
170 139 151 139 189 204 151 139 204 
171 145 189 161 171 139 139 171 189 
189 199 205 240 244 241 133 121 171 
133 171 161 199 161 195 132 161 199 
175 132 199 199 195 205 205 220 218 
227 205 218 220 223 218 244 218 223 
218 244 240 95 109 133 109 121 133 
112 95 133 112 133 161 132 112 161 
0 36 3 232 231 238 221 212 231 
181 193 197 138 167 181 184 138 181 
119 138 184 119 73 138 73 57 138 
49 57 73 57 39 82 39 57 49 
10 39 49 3 36 39 10 3 39 
22 3 10 220 205 195 195 206 220 
147 151 204 151 129 170 147 128 151 
128 129 151 50 23 87 31 19 23 
207 227 235 203 204 227 198 204 203 
192 155 198 198 147 204 155 147 198 
83 147 155 83 128 147 50 129 128 
83 50 128 50 87 129 87 85 129 
61 50 83 32 50 61 43 29 61 
29 32 61 32 31 50 29 31 32 
29 19 31 192 198 203 104 83 155 
70 61 83 236 245 242 237 236 242 
200 210 217 185 210 200 153 166 185 
245 236 239 216 229 236 217 216 236 
148 120 164 71 91 120 226 228 247 
122 119 184 144 122 166 166 122 184 
137 150 144 144 150 122 250 239 248 
248 251 250 137 144 153 242 250 249 
137 153 158 247 249 244 164 158 148 
148 158 180 246 249 247 14 8 46 
14 46 51 30 14 51 51 46 71 
118 51 71 46 91 71 71 120 148 
71 148 176 176 180 209 176 209 206 
206 209 222 222 209 213 222 225 226 
226 225 228 228 246 247 165 166 184 
187 165 215 210 216 217 185 187 210 
183 187 185 229 239 236 187 215 210 
169 187 183 169 173 187 60 169 125 
60 79 169 152 110 125 80 60 125 
125 110 80 33 80 110 13 86 60 
60 80 13 33 9 80 80 9 13 
26 9 33 166 183 185 210 215 216 
152 125 169 191 206 195 162 191 195 
223 247 244 161 162 195 182 162 161 
161 139 182 251 241 244 174 157 139 
248 243 251 150 168 167 150 157 168 
238 243 248 167 168 178 231 224 238 
231 212 224 211 224 212 193 211 212 
193 201 211 193 178 201 181 178 193 
167 178 181 100 101 113 113 101 107 
96 107 101 76 101 100 92 107 96 
92 108 107 76 78 101 78 96 101 
92 96 102 96 78 95 78 109 95 
78 76 109 96 95 102 102 112 103 
102 95 112 168 157 174 100 113 111 
186 185 200 179 185 186 154 177 179 
90 68 154 79 173 169 179 177 185 
230 217 236 27 42 20 64 99 163 
74 64 134 64 163 156 64 156 134 
140 134 156 134 140 136 140 156 190 
140 190 180 180 190 209 209 190 208 
213 209 208 213 208 233 213 233 225 
136 62 74 136 74 134 79 116 173 
13 24 86 24 35 86 86 35 79 
79 35 116 60 86 79 
POINT_DATA 252
SCALARS k float
LOOKUP_TABLE default
1.87092 2.55869 2.74855 2.06802 3.21788 1.80488 0.357552 1.87805 1.83307 
0.811245 0.0247269 0.930487 1.84602 1.61998 2.30358 0.141903 0.051199 0.764793 
0.20077 1.59073 0.539637 0.132169 1.96032 0.192017 1.70155 1.55666 2.13186 
0.652233 0.0554677 0.870527 0.118907 2.80533 0.904084 -0.0248889 0.221659 0.00565514 
0.339211 -0.00889459 0.0493295 -0.0687346 1.16593 0.0418762 -0.0161154 -0.0704277 0.0197769 
-0.0189043 0.0166822 -0.043364 0.0631228 0.00664249 -0.0271414 -0.055343 0.0349135 0.0371017 
-0.0885433 -0.027887 -0.0138476 0.0165125 0.086738 -0.0223899 0.0111744 -0.0539213 0.0788185 
0.0299709 -0.0472631 -0.00329387 -0.00214784 -0.0307374 -0.0864644 0.00300026 0.194906 -0.0521622 
-0.00407106 0.0179045 0.0159535 -0.0168829 0.877514 0.554738 0.286236 0.0991774 0.0331251 
0.0260452 0.066069 -0.0368331 0.00879028 0.118618 -0.0209502 -0.080287 0.0758281 -0.0284042 
0.068392 -0.00560975 -0.940047 0.0266887 -0.00458388 0.00784445 -0.486993 0.0218803 0.055654 
-0.0485771 0.0383672 0.0162905 -0.425584 -0.544831 0.213648 0.31164 0.0114302 1.97676 
0.114462 0.480321 -0.0554718 1.70154 -0.362842 2.4545 0.00694141 0.0256498 -0.00283217 
0.0243274 0.0495408 -0.00075984 -0.147538 0.438102 -1.83426 -0.254539 -0.229888 0.0664864 
0.0412352 -0.298646 -0.0241209 -0.193507 0.12746 -0.146758 -0.366693 0.0802152 0.167054 
-0.69013 0.0190168 0.291467 -0.129262 -1.28477 0.0687026 -0.332703 -0.0366965 -0.0194538 
0.150437 0.328911 -0.0365389 0.165319 -1.31788 -1.31135 -2.20466 -0.412409 -0.348796 
0.184351 -0.0963951 -1.22656 -0.12467 0.242646 -2.6915 -0.113866 -0.914405 -1.33935 
-0.991402 -0.419694 -2.66569 -0.906603 -2.66859 -0.414707 -1.43268 -0.621449 -2.78453 
-1.92249 0.0287502 0.244581 -2.03217 0.098937 -0.31265 -3.42188 -0.942134 -0.208198 
-0.747381 -0.137585 -0.0640099 -0.970365 -0.490337 -0.877464 0.177912 -0.214212 -1.32366 
-0.641963 -0.393123 -0.215802 -0.672341 0.132324 0.324198 -0.0209202 -0.12921 0.170143 
0.0743968 -0.16873 -0.413753 0.0630059 -0.00543785 -0.13739 -0.44893 -0.167324 0.145052 
0.00469387 0.0133878 0.133113 -0.166555 0.00246894 0.0100715 0.00286242 0.00053668 -0.0560974 
-0.00253522 0.0192654 0.150239 0.0121888 0.00248784 0.0127186 0.00620729 0.304538 0.0656827 
0.106529 0.180242 0.040675 0.157451 0.144231 0.182897 0.151722 0.182953 -0.034899 
0.103198 0.155962 0.0881644 0.20513 0.386584 0.387137 0.176464 0.162126 0.179841 
0.185184 0.393192 0.150968 0.277472 0.305935 0.372453 0.334026 0.359209 0.373092 

FIELD FieldData 7
h 1 252 float
2.68293 -1.2249 2.33444 1.82926 11.2658 1.11494 2.74682 1.26702 6.3091 
13.8464 3.62378 1.29898 4.25017 0.0636189 0.745295 0.141159 -1.40105 1.12693 
-0.186987 15.4121 3.12121 2.12432 0.698949 0.714995 4.42643 6.97615 1.35106 
25.5976 1.29763 -2.44421 2.47205 0.541796 1.99773 10.1845 1.53701 2.203 
1.83641 0.842569 0.978036 3.45486 4.68256 0.714312 4.09557 -5.68201 -1.48782 
1.13918 -0.0199334 -0.345159 1.95218 1.96764 2.16956 1.41586 18.7786 -2.01936 
-0.467893 -2.02599 2.71491 1.33642 0.833677 0.841215 0.818578 2.74973 1.6923 
2.53799 0.914294 2.03993 1.17932 -1.03447 0.351557 10.0602 -0.106324 0.819546 
1.87625 3.05075 3.16731 -0.48568 0.491709 1.60701 0.396857 1.65814 -7.01479 
0.117563 2.69127 2.3184 2.89997 0.155242 -0.0802388 -0.698583 -1.58621 1.05622 
0.289832 -1.70359 -15.499 1.98349 2.18993 0.56085 -2.93845 2.87174 1.46698 
0.788407 0.0344593 0.314473 -1.57633 0.25619 2.22201 1.80348 -0.464752 -2.19206 
0.0918037 0.0934837 1.709 -0.166066 -1.46522 0.0465847 -0.570764 -0.899514 3.13582 
1.25928 3.94174 2.07315 -2.65922 1.56603 -0.283485 -3.33359 -2.89819 -3.82212 
3.56289 -3.14534 0.869551 -3.21696 0.882167 -1.91713 1.08063 0.539895 2.6968 
-1.73038 1.30588 -3.32937 1.90149 -0.423989 3.22292 0.975656 0.145427 2.0692 
0.605358 1.1732 -0.0300573 2.20888 0.678377 0.397814 0.938584 0.893176 1.05384 
0.875722 1.06583 1.41845 0.737577 0.212411 0.710102 1.536 1.13899 -0.946705 
-0.543918 -2.28517 -0.62805 2.84712 2.68204 1.80351 0.588654 0.441382 -2.57264 
-2.88728 1.20271 4.51619 0.315942 0.520109 2.75873 1.63958 2.53438 0.717351 
2.7329 3.18682 1.701 0.967789 3.13845 2.60972 3.35671 2.22818 2.28221 
0.363581 2.18769 3.08746 1.63064 4.13962 1.67376 4.29594 2.66255 4.45566 
1.33703 1.09349 2.61407 3.18862 2.32174 1.21294 0.614835 0.420409 4.62614 
1.96087 2.883 3.04122 2.35403 3.22067 4.4163 2.99985 2.8609 3.54652 
2.80037 2.411 2.14187 2.4204 4.22396 4.45638 4.40791 4.98408 3.50326 
3.38701 5.22401 1.20086 3.83352 3.98845 2.39189 4.99445 4.65559 2.36941 
2.73108 1.78151 2.70454 2.76072 5.37407 5.88969 2.30313 3.95272 3.02843 
3.50629 4.68649 3.28889 4.71087 7.54647 8.3156 8.99758 6.47534 6.39677 

kmin 1 252 float
6.13255 -0.585575 5.51071 3.94333 24.5902 2.24064 6.09808 2.79784 15.1149 
27.022 7.95418 2.90691 9.23261 1.48055 2.57894 0.774942 -0.562421 2.53668 
0.364025 30.4017 6.48519 4.92104 2.72186 2.63123 8.94657 14.6412 3.82687 
51.2022 3.10921 -0.00156206 5.14411 2.5654 4.38071 20.808 3.30258 4.85931 
3.47326 2.48439 2.11056 7.38645 9.25814 1.79099 8.37657 0.752424 0.733789 
2.95043 1.00573 1.20139 5.16574 4.19808 4.59184 3.18061 37.5605 0.0844451 
0.258943 0.0186935 5.76502 2.80067 2.09784 2.43703 2.97186 6.06313 3.77065 
5.95872 2.61017 4.33316 3.6575 1.0064 2.01857 20.3997 0.83881 1.77301 
3.99499 6.20825 6.73046 0.61696 1.04945 3.93284 2.20223 3.21919 0.261415 
1.17232 6.26818 4.65083 6.17831 1.73157 0.625815 0.308165 0.602539 2.29943 
1.89427 0.908868 -2.97621 4.16072 4.49662 1.27353 -0.90422 5.93864 3.34 
2.48853 0.32393 0.976423 -0.510679 1.97309 4.59162 3.55197 1.58465 -0.83385 
1.29643 1.31622 3.79807 0.153515 -0.820614 0.147452 0.334718 0.50919 6.67536 
2.80012 7.91323 4.26917 -0.310161 2.28144 0.711623 -1.37547 -0.604895 -0.320305 
7.06256 -0.563336 1.71921 -0.141856 1.81368 -0.847074 2.25028 2.39211 5.32578 
-0.185068 2.67854 -1.25828 3.85616 0.502662 6.39848 2.19306 0.939974 4.00241 
0.859512 2.15085 1.11385 4.20661 1.5253 1.0274 1.26825 1.71576 2.45655 
1.7065 2.88531 2.84826 1.49185 0.560635 1.1677 2.90709 2.5469 -0.0772485 
0.215515 -0.514305 0.543461 5.49744 5.07273 3.70361 1.62894 0.92438 -1.71055 
-0.321044 2.27438 8.83437 0.599299 0.816032 5.47997 2.7046 4.87281 1.46095 
5.32637 6.4631 3.274 1.8236 6.30397 5.23496 6.56314 4.2903 4.5418 
0.519308 4.28411 6.12603 3.17219 8.12381 3.06161 8.60243 5.264 8.77885 
2.48131 1.89892 5.21087 6.34321 4.65688 2.30003 0.826878 0.687781 9.14623 
3.88831 5.78733 5.94615 4.63 6.3259 8.63454 5.90423 5.69584 7.02718 
5.52022 4.80277 4.4383 4.7891 8.37952 8.81545 8.66921 10.0508 6.84777 
6.75549 10.107 2.37076 6.74021 7.87289 4.7841 9.75568 9.04289 4.77671 
5.3788 3.6931 5.37278 5.13929 9.23893 10.5853 4.67939 6.5412 5.35451 
6.25601 8.05626 5.78841 7.52001 13.7255 12.8699 12.4217 8.89676 6.94684 

kmax 1 252 float
-0.766685 -1.86423 -0.841826 -0.284815 -2.05851 -0.0107564 -0.60444 -0.263804 -2.49668 
0.670755 -0.706613 -0.308955 -0.732266 -1.35331 -1.08835 -0.492624 -2.23968 -0.282815 
-0.737998 0.422418 -0.242783 -0.672404 -1.32396 -1.20124 -0.0937205 -0.688846 -1.12474 
-0.00704924 -0.513944 -4.88686 -0.200008 -1.48181 -0.385244 -0.438995 -0.228573 -0.453305 
0.199558 -0.799252 -0.154488 -0.476724 0.106981 -0.36237 -0.185435 -12.1164 -3.70943 
-0.67207 -1.0456 -1.89171 -1.26137 -0.262793 -0.252716 -0.348889 -0.00332363 -4.12316 
-1.19473 -4.07066 -0.335192 -0.127839 -0.430488 -0.754605 -1.33471 -0.563678 -0.386056 
-0.882752 -0.781581 -0.2533 -1.29885 -3.07534 -1.31546 -0.279215 -1.05146 -0.133918 
-0.242492 -0.106749 -0.395834 -1.58832 -0.0660348 -0.718828 -1.40852 0.0970893 -14.291 
-0.937195 -0.88564 -0.0140311 -0.378369 -1.42109 -0.786292 -1.70533 -3.77495 -0.186982 
-1.3146 -4.31606 -28.0218 -0.193736 -0.116756 -0.151833 -4.97268 -0.195164 -0.40604 
-0.911716 -0.255012 -0.347478 -2.64198 -1.46071 -0.147603 0.0549946 -2.51416 -3.55027 
-1.11282 -1.12925 -0.38006 -0.485647 -2.10983 -0.0542825 -1.47624 -2.30822 -0.403713 
-0.281554 -0.029751 -0.122868 -5.00829 0.85062 -1.27859 -5.29172 -5.19148 -7.32393 
0.0632121 -5.72734 0.0198965 -6.29207 -0.0493487 -2.98719 -0.0890256 -1.31232 0.0678146 
-3.27569 -0.0667897 -5.40046 -0.053179 -1.35064 0.0473689 -0.241753 -0.649121 0.135987 
0.351205 0.195554 -1.17396 0.211146 -0.168551 -0.23177 0.608919 0.0705908 -0.348869 
0.0449406 -0.75364 -0.0113533 -0.0166992 -0.135812 0.252505 0.164904 -0.268915 -1.81616 
-1.30335 -4.05604 -1.79956 0.196793 0.291353 -0.096603 -0.451628 -0.0416166 -3.43474 
-5.45351 0.131038 0.198006 0.0325854 0.224185 0.0375014 0.574567 0.195946 -0.026245 
0.139429 -0.0894474 0.128005 0.111983 -0.0270723 -0.0155173 0.150279 0.166062 0.0226206 
0.207854 0.0912711 0.0488971 0.0890938 0.155423 0.285911 -0.0105599 0.0611118 0.132477 
0.192738 0.288063 0.0172802 0.0340343 -0.0134047 0.125854 0.402793 0.153038 0.106053 
0.0334271 -0.0213175 0.136287 0.0780563 0.115436 0.198058 0.095473 0.0259586 0.0658592 
0.0805173 0.0192183 -0.154559 0.0516887 0.0684089 0.097307 0.146599 -0.0826358 0.158757 
0.0185336 0.340987 0.0309502 0.92683 0.104015 -0.000319038 0.233222 0.268283 -0.0378867 
0.0833664 -0.130078 0.0362984 0.382154 1.50921 1.19411 -0.0731306 1.36424 0.702361 
0.756582 1.31672 0.78936 1.90173 1.36742 3.76133 5.57344 4.05393 5.84669 

hks 16 252 double
0.74572161292 0.74998747019 0.75412867608 0.7581496942 0.76205536212 0.76585074124 0.76954097049 0.773131127 0.77662609677 
0.78003045764 0.78334837668 0.78658352311 0.78973899779 0.79281727948 0.79582018777 0.79874886205 0.59566022497 0.6011561241 
0.60659450886 0.61197139301 0.61728292519 0.62252535413 0.62769499922 0.63278822721 0.63780143614 0.64273104652 0.64757350003 
0.65232526514 0.65698284917 0.66154281576 0.66600180656 0.67035656612 0.68369658777 0.68747492334 0.69110693561 0.69459510738 
0.69794231435 0.70115168832 0.70422648402 0.70716995292 0.70998522664 0.71267521248 0.71524250264 0.71768929857 0.72001735097 
0.72222791591 0.72432172656 0.72629898006 0.71940857655 0.72468984166 0.7298214238 0.73480448351 0.73964091829 0.74433323389 
0.74888441189 0.75329777694 0.75757686686 0.76172530857 0.76574670221 0.76964451566 0.77342199097 0.77708206389 0.7806272972 
0.7840598281 0.72950320655 0.73475233151 0.73988864721 0.74491319953 0.74982744821 0.75463317636 0.75933240286 0.76392730003 
0.76842011823 0.77281311884 0.77710851681 0.78130843315 0.78541485779 0.7894296226 0.7933543841 0.79719061514 0.60211640842 
0.60824332277 0.61429191461 0.62025558126 0.62612818684 0.63190405693 0.63757796897 0.64314513936 0.64860120801 0.65394222132 
0.6591646142 0.66426519168 0.66924111074 0.67408986246 0.67880925492 0.68339739686 0.62749759477 0.63255715429 0.63750979688 
0.64234536228 0.64705464172 0.65162938108 0.65606226673 0.66034689572 0.66447773252 0.66845005455 0.67225988882 0.67590394224 
0.67937952791 0.68268448956 0.68581712634 0.68877611961 0.64923562672 0.6541402859 0.65889045499 0.66348306015 0.66791570937 
0.67218662938 0.6762945958 0.68023885878 0.68401906602 0.68763518529 0.69108742824 0.6943761772 0.69750191656 0.70046516988 
0.70326644383 0.70590617971 0.68256953793 0.68766095459 0.69256578415 0.6972750364 0.70178055077 0.70607498476 0.71015179276 
0.71400519668 0.7176301501 0.72102229746 0.72417792995 0.72709393945 0.7297677719 0.73219738131 0.73438118526 0.73631802282 
0.66313643808 0.66944944162 0.67579857199 0.68217756521 0.68858048593 0.69500173101 0.70143602867 0.70787843429 0.71432432421 
0.72076938823 0.72720962208 0.73364132022 0.74006106971 0.74646574541 0.75285250662 0.75921879513 0.62492653639 0.63156720987 
0.63808852847 0.64448041698 0.65073406909 0.65684192129 0.662797607 0.66859589382 0.67423260667 0.67970454006 0.68500936246 
0.69014551571 0.69511211222 0.6999088326 0.70453582571 0.70899361314 0.6015707079 0.60673350762 0.61187980737 0.61700281558 
0.62209578091 0.6271520044 0.63216485414 0.637127783 0.64203434911 0.64687823922 0.65165329434 0.65635353732 0.6609732014 
0.6655067593 0.66994895159 0.67429481376 0.66790995195 0.67305951445 0.67801094093 0.68275782372 0.68729439261 0.69161548155 
0.69571649244 0.69959335728 0.70324250032 0.70666080092 0.70984555837 0.71279445911 0.71550554699 0.71797719672 0.72020809065 
0.72219719886 0.63500329741 0.64204303017 0.64905047856 0.65602364398 0.66296081048 0.66986051234 0.67672150283 0.68354272538 
0.6903232878 0.69706244016 0.70375955688 0.71041412299 0.71702572471 0.72359404416 0.73011885771 0.73660003778 0.66731386768 
0.67233937557 0.67718133008 0.68183224359 0.6862852605 0.69053413943 0.69457323088 0.69839745166 0.70200225706 0.7053836121 
0.70853796244 0.71146220593 0.71415366531 0.71661006254 0.71882949489 0.72081041318 0.63263547825 0.63861295997 0.64446915033 
0.65019862621 0.65579689103 0.66126031369 0.66658605658 0.67177199558 0.67681663442 0.68171901628 0.68647863481 0.69109534681 
0.69556928858 0.69990079729 0.70409033883 0.70813844304 0.51953848313 0.52433250554 0.52913608435 0.53394242505 0.53874440985 
0.54353465289 0.54830556275 0.55304941072 0.55775840341 0.56242475786 0.56704077728 0.57159892573 0.57609189976 0.58051269554 
0.58485466998 0.58911159431 0.58471760526 0.59017498688 0.59559249298 0.60096503688 0.60628744191 0.61155445455 0.61676076381 
0.62190102653 0.62696989786 0.63196206614 0.63687229103 0.64169544375 0.64642654818 0.65106082145 0.65559371287 0.6600209399 
0.63525609535 0.64049731121 0.64558334411 0.65050158989 0.65524029348 0.65978859899 0.66413658478 0.66827528372 0.67219668948 
0.67589374964 0.67936034683 0.6825912694 0.68558217305 0.68832953513 0.69083060329 0.69308333999 0.73180570903 0.73811126577 
0.74424915052 0.7502153479 0.75600669245 0.76162078468 0.76705590203 0.77231090734 0.77738515758 0.78227841504 0.78699076298 
0.79152252724 0.79587420513 0.8000464022 0.80403977752 0.80785499739 0.72424897856 0.72970070926 0.73503165558 0.74024207635 
0.74533282101 0.75030523224 0.75516104877 0.759902311 0.76453127178 0.76905031448 0.77346187958 0.77776840128 0.78197225445 
0.78607571237 0.79008091504 0.79398984762 0.58154485326 0.58664972638 0.59175778175 0.59686133775 0.60195252237 0.60702331858 
0.61206561574 0.61707126608 0.62203214517 0.62694021502 0.63178758826 0.63656659189 0.64126982906 0.64589023715 0.65042114095 
0.65485629946 0.6990701308 0.70428670647 0.70937540623 0.71433637334 0.71917028246 0.72387823966 0.72846168199 0.73292227869 
0.73726183646 0.74148221051 0.74558522292 0.74957258949 0.75344585592 0.75720634372 0.76085510624 0.76439289448 0.6833252361 
0.68986827276 0.69627592477 0.70253901593 0.70864933801 0.71459964205 0.72038361512 0.72599584413 0.73143176889 0.73668762605 
0.74176038635 0.74664768688 0.75134776063 0.75585936485 0.7601817101 0.76431439124 0.67415164208 0.67933384206 0.68461437742 
0.68998816634 0.69544991028 0.70099409969 0.70661502647 0.71230680367 0.71806339259 0.72387863712 0.72974630455 0.73566013222 
0.74161387858 0.74760137735 0.75361659331 0.75965367793 0.69828811087 0.70409115807 0.70977526671 0.71533968035 0.72078410208 