# vtk DataFile Version 5.1
vtk output
ASCII
DATASET POLYDATA
POINTS 252 float
0.880785 0.1206 -0.030469 0.836854 0.042079 0.013889 0.867134 0.119132 0.001976 
0.822644 -0.009009 -0.006666 0.839835 -0.010057 0.04192 0.805704 0.057665 -0.011238 
0.835836 0.119044 -0.032492 0.77043 -0.07826 0.060452 0.75467 -0.050105 0.094418 
0.771567 -0.029955 0.029323 0.789221 0.044089 0.051209 0.717694 -0.057196 0.051578 
0.691256 0.067336 0.024933 0.670025 0.034083 0.106256 0.751404 0.14103 0.046249 
0.705282 0.169846 0.032836 0.680184 -0.083844 0.139023 0.60679 -0.079281 0.10947 
0.614222 0.176366 0.104696 0.722062 0.139409 0.006517 0.648419 -0.108659 0.128552 
0.540379 0.183582 0.05227 0.576294 -0.030557 0.167115 0.555191 0.105044 0.070204 
0.539547 -0.127797 0.154627 0.609689 -0.100134 0.162139 0.573317 -0.001811 0.097898 
0.557294 0.081638 0.139383 0.519997 0.146782 0.13668 0.558678 0.214148 0.060129 
0.538175 0.208832 0.118415 0.562785 0.225084 0.085701 0.55157 -0.126106 0.179393 
0.52571 0.017787 0.104532 0.494001 0.042313 0.092706 0.517677 -0.095105 0.193236 
0.454153 -0.144235 0.150826 0.362059 0.036796 0.048875 0.418867 0.165047 0.031148 
0.481539 -0.024264 0.16466 0.49598 0.076433 0.147293 0.44535 -0.077206 0.109076 
0.365565 0.039061 0.111879 0.455303 0.267349 0.056316 0.522927 -0.100745 0.137162 
0.460545 0.223263 0.032686 0.378611 0.26344 0.080314 0.452893 -0.132557 0.178802 
0.335834 -0.109968 0.074671 0.451842 0.233534 0.107597 0.410948 -0.084579 0.163655 
0.364861 0.280401 0.041537 0.34831 0.184666 0.101152 0.350359 -0.146151 0.118026 
0.364612 0.258363 0.00924 0.334494 0.195933 -0.007848 0.325493 -0.110668 0.136788 
0.286534 -0.117646 0.09673 0.258677 -0.093745 0.081105 0.28074 0.196098 0.073194 
0.305814 -0.047394 0.037678 0.281185 0.095332 -0.017191 0.27088 0.233887 -0.030156 
0.217197 -0.023122 -0.028123 0.2918 0.022746 0.08534 0.263027 -0.123925 0.041673 
0.256494 0.190041 -0.056716 0.280173 0.256677 0.024395 0.205099 0.14391 0.027744 
0.179982 0.206937 -0.073184 0.198328 -0.134228 -0.015207 0.153173 -0.156809 0.000716 
0.161846 0.043881 -0.105027 0.120262 -0.455429 -0.08009 0.171771 0.146386 -0.1272 
0.168586 -0.03116 -0.065404 0.123755 -0.532505 -0.010241 0.139892 -0.465729 -0.047087 
0.168214 -0.109385 0.021499 0.130096 -0.1668 -0.072408 0.072605 -0.579059 -0.001367 
0.054825 -0.130706 -0.078229 0.103852 0.133605 -0.189676 0.150176 0.181255 -0.044458 
0.137313 -0.544037 -0.049164 0.094477 -0.013292 -0.139572 0.123897 0.116773 -0.035033 
0.084838 0.049769 -0.231999 0.139817 0.002437 -0.012361 0.108992 -0.393689 -0.060042 
0.066852 -0.058483 -0.216013 0.081804 0.079012 -0.075228 0.040789 -0.396749 -0.103914 
0.079843 -0.096599 -0.149896 0.076049 -0.051968 -0.070548 0.054264 0.053259 -0.282891 
0.066953 0.14194 -0.269988 0.079732 -0.209689 -0.098404 0.064853 -0.311582 -0.070177 
0.030969 -0.309302 -0.137576 0.080074 -0.335856 -0.103193 0.073214 0.24486 -0.185505 
0.043004 -0.060936 -0.250471 0.056883 0.228743 -0.244065 0.021671 0.092777 -0.302363 
0.077313 0.174688 -0.112294 0.028125 -0.33436 -0.045354 0.048877 -0.178545 -0.18078 
0.055882 -0.251014 -0.125947 0.058116 0.320473 -0.181967 0.091377 0.192452 -0.146278 
0.03999 -0.58789 -0.016412 0.058809 0.237413 -0.131123 0.003061 -0.209533 -0.183664 
-0.05858 -0.379982 -0.016464 0.046778 -0.187481 -0.077739 0.039736 -0.25095 -0.066939 
0.01102 -0.024104 -0.282956 -0.002572 -0.116417 -0.243334 0.016406 0.346477 -0.263035 
0.095761 -0.455586 -0.029854 -0.032851 0.139252 -0.290561 0.036764 -0.530163 -0.049913 
-0.009348 0.049087 -0.079008 0.001921 0.230612 -0.270956 -0.055405 -0.235283 -0.155988 
-0.052821 -0.076278 -0.2564 -0.070303 -0.565234 -0.010216 0.033751 0.007778 -0.082709 
-0.02168 0.232271 -0.112853 -0.00557 0.325384 -0.144688 0.015897 0.134546 -0.102714 
-0.035541 -0.428366 -0.080688 -0.023656 -0.554659 0.018875 -0.005081 0.393773 -0.262384 
-0.055691 -0.481478 0.009767 -0.037829 0.176418 -0.080721 -0.039105 -0.319356 -0.124339 
-0.045199 0.229624 -0.254679 -0.032379 0.35008 -0.216023 -0.074367 -0.289684 -0.103951 
-0.068898 0.00633 -0.272191 -0.070097 0.091949 -0.286776 -0.05488 -0.314214 -0.041023 
-0.066149 0.085751 -0.022204 -0.06621 -0.153258 -0.189952 -0.041269 -0.198118 -0.063895 
-0.030747 -0.114682 -0.064406 -0.051646 0.253585 -0.137255 -0.094126 0.136004 -0.240119 
-0.078045 -0.285844 -0.070338 -0.138059 -0.482479 -0.026213 -0.083341 -0.195545 -0.124649 
-0.101487 0.059702 -0.237068 -0.074894 -0.214904 -0.092867 -0.097156 0.005255 0.024003 
-0.113113 -0.152593 0.020436 -0.087215 -0.093592 -0.1285 -0.10113 -0.000649 -0.201077 
-0.066181 0.204837 -0.111474 -0.098704 0.097789 -0.185041 -0.073826 0.210094 -0.216433 
-0.084514 -0.007728 -0.093223 -0.07386 -0.134357 -0.001305 -0.101334 0.154132 -0.13083 
-0.110646 -0.396286 -0.060571 -0.118247 -0.380846 -0.036337 -0.101759 -0.160009 -0.035789 
-0.163051 0.188347 -0.07796 -0.070543 -0.572055 0.022415 -0.149028 -0.465183 0.009313 
-0.104526 0.192779 -0.043538 -0.14425 -0.520449 0.031787 -0.167071 -0.525265 0.013728 
-0.106156 0.11116 -0.122003 -0.126361 -0.022638 -0.029441 -0.136906 -0.094041 0.046131 
-0.112408 0.108548 0.014061 -0.178979 -0.003533 0.052739 -0.187945 0.043842 -0.029968 
-0.152052 0.213571 -0.051777 -0.132429 -0.132631 -0.014901 -0.200701 -0.134324 0.061453 
-0.215605 0.170989 -0.048867 -0.185827 -0.049734 0.000367 -0.203459 0.229477 0.015651 
-0.269215 0.174168 0.093059 -0.190059 0.149676 0.050395 -0.256514 0.027507 0.021887 
-0.308349 -0.090108 0.08372 -0.262618 0.232404 -0.01542 -0.233179 -0.088628 0.101863 
-0.287337 -0.113372 0.110065 -0.318011 -0.000539 0.060902 -0.307317 0.035964 0.113152 
-0.292589 0.261721 0.053519 -0.420677 0.128013 0.042314 -0.338839 -0.141418 0.131817 
-0.340056 0.282095 0.035771 -0.419001 -0.000165 0.082714 -0.329333 0.206828 0.001831 
-0.427288 -0.122921 0.169834 -0.350457 0.229382 0.097948 -0.458333 -0.065458 0.106903 
-0.381821 0.262384 0.018888 -0.427217 -0.125519 0.123919 -0.326026 -0.079454 0.148123 
-0.412582 0.085286 0.119844 -0.487651 -0.084216 0.177574 -0.444447 0.260617 0.084214 
-0.497991 0.037594 0.083929 -0.461005 0.016302 0.146157 -0.494345 0.156678 0.121011 
-0.43964 0.202008 0.024022 -0.538193 0.192801 0.033954 -0.461748 -0.14309 0.155297 
-0.549256 -0.12137 0.134073 -0.544735 0.20541 0.096329 -0.455171 0.260715 0.040992 
-0.535035 0.231753 0.070121 -0.582499 0.161975 0.100507 -0.542926 -0.115665 0.175137 
-0.526295 0.019384 0.150666 -0.538531 0.086434 0.12354 -0.61318 0.196656 0.037225 
-0.549721 -0.000672 0.091826 -0.541971 0.128309 0.046113 -0.628709 -0.078451 0.148002 
-0.657018 0.056031 0.094652 -0.624803 -0.108668 0.132234 -0.574469 -0.085569 0.111019 
-0.688009 0.146178 0.007914 -0.711081 -0.068824 0.117667 -0.681586 -0.112711 0.110037 
-0.716066 -0.055839 0.05358 -0.770322 -0.014676 0.079035 -0.653071 0.185854 0.050148 
-0.700563 0.15715 0.054201 -0.738288 -0.01549 0.03191 -0.694577 0.069248 0.019099 
-0.72117 0.080491 0.066141 -0.850442 0.002984 0.045848 -0.760886 -0.074092 0.055498 
-0.801904 -0.039425 0.065194 -0.869339 0.107614 -0.033542 -0.838236 -0.002663 -0.000717 
-0.824902 0.125643 0.02659 -0.757264 0.1563 0.000916 -0.828757 0.066406 -0.014342 
-0.897787 0.116128 -0.006135 -0.836931 0.057744 0.029118 -0.8939 0.08608 -0.017637 

POLYGONS 501 1500
OFFSETS vtktypeint64
0 3 6 9 12 15 18 21 24 
27 30 33 36 39 42 45 48 51 
54 57 60 63 66 69 72 75 78 
81 84 87 90 93 96 99 102 105 
108 111 114 117 120 123 126 129 132 
135 138 141 144 147 150 153 156 159 
162 165 168 171 174 177 180 183 186 
189 192 195 198 201 204 207 210 213 
216 219 222 225 228 231 234 237 240 
243 246 249 252 255 258 261 264 267 
270 273 276 279 282 285 288 291 294 
297 300 303 306 309 312 315 318 321 
324 327 330 333 336 339 342 345 348 
351 354 357 360 363 366 369 372 375 
378 381 384 387 390 393 396 399 402 
405 408 411 414 417 420 423 426 429 
432 435 438 441 444 447 450 453 456 
459 462 465 468 471 474 477 480 483 
486 489 492 495 498 501 504 507 510 
513 516 519 522 525 528 531 534 537 
540 543 546 549 552 555 558 561 564 
567 570 573 576 579 582 585 588 591 
594 597 600 603 606 609 612 615 618 
621 624 627 630 633 636 639 642 645 
648 651 654 657 660 663 666 669 672 
675 678 681 684 687 690 693 696 699 
702 705 708 711 714 717 720 723 726 
729 732 735 738 741 744 747 750 753 
756 759 762 765 768 771 774 777 780 
783 786 789 792 795 798 801 804 807 
810 813 816 819 822 825 828 831 834 
837 840 843 846 849 852 855 858 861 
864 867 870 873 876 879 882 885 888 
891 894 897 900 903 906 909 912 915 
918 921 924 927 930 933 936 939 942 
945 948 951 954 957 960 963 966 969 
972 975 978 981 984 987 990 993 996 
999 1002 1005 1008 1011 1014 1017 1020 1023 
1026 1029 1032 1035 1038 1041 1044 1047 1050 
1053 1056 1059 1062 1065 1068 1071 1074 1077 
1080 1083 1086 1089 1092 1095 1098 1101 1104 
1107 1110 1113 1116 1119 1122 1125 1128 1131 
1134 1137 1140 1143 1146 1149 1152 1155 1158 
1161 1164 1167 1170 1173 1176 1179 1182 1185 
1188 1191 1194 1197 1200 1203 1206 1209 1212 
1215 1218 1221 1224 1227 1230 1233 1236 1239 
1242 1245 1248 1251 1254 1257 1260 1263 1266 
1269 1272 1275 1278 1281 1284 1287 1290 1293 
1296 1299 1302 1305 1308 1311 1314 1317 1320 
1323 1326 1329 1332 1335 1338 1341 1344 1347 
1350 1353 1356 1359 1362 1365 1368 1371 1374 
1377 1380 1383 1386 1389 1392 1395 1398 1401 
1404 1407 1410 1413 1416 1419 1422 1425 1428 
1431 1434 1437 1440 1443 1446 1449 1452 1455 
1458 1461 1464 1467 1470 1473 1476 1479 1482 
1485 1488 1491 1494 1497 1500 
CONNECTIVITY vtktypeint64
82 96 101 101 96 103 244 248 251 
244 251 249 82 87 96 96 87 95 
161 149 160 153 160 149 103 96 124 
138 149 161 138 124 121 119 103 124 
119 124 134 134 124 138 134 138 161 
113 99 137 125 113 137 113 125 145 
107 113 118 118 113 145 118 145 126 
90 107 102 102 107 118 117 118 126 
126 145 158 95 90 102 117 102 118 
141 117 126 141 126 158 153 141 158 
95 102 117 142 117 141 142 141 153 
104 96 95 95 117 104 104 117 142 
104 142 121 149 142 153 96 104 124 
124 104 121 138 121 142 149 138 142 
40 52 42 28 52 40 27 18 28 
13 18 27 13 14 18 10 2 14 
40 42 39 27 28 40 22 13 27 
8 14 13 10 14 8 39 42 50 
22 40 39 22 27 40 16 13 22 
8 13 16 35 39 50 35 22 39 
25 16 22 7 16 20 7 8 16 
47 35 50 32 35 47 36 32 47 
32 22 35 25 22 32 20 25 32 
24 20 32 20 16 25 166 143 150 
114 143 166 106 143 114 89 98 106 
114 166 170 135 114 170 135 120 114 
76 120 135 120 106 114 120 89 106 
77 89 120 135 170 172 76 135 133 
76 77 120 76 84 77 172 133 135 
172 169 133 80 169 111 80 133 169 
80 76 133 84 80 111 84 76 80 
130 134 139 130 139 148 130 109 134 
112 109 130 129 130 148 112 130 129 
101 109 112 101 112 110 171 168 180 
159 164 168 171 159 168 207 211 206 
194 207 206 57 53 56 1 3 5 
23 34 21 21 34 38 2 6 15 
15 6 19 2 15 14 15 19 29 
29 19 21 21 19 23 45 21 38 
52 46 59 29 21 45 43 29 45 
45 38 55 43 45 54 45 55 54 
46 43 51 46 51 67 46 67 59 
51 43 54 48 53 57 65 48 57 
57 56 58 37 48 60 56 64 58 
37 60 55 55 38 37 64 59 68 
178 194 191 58 64 78 64 88 78 
61 60 63 208 222 227 208 211 222 
208 206 211 206 191 194 60 70 63 
60 65 70 60 48 65 208 227 221 
215 201 221 201 208 221 201 206 208 
215 197 201 197 206 201 192 206 197 
71 58 78 57 71 65 57 58 71 
59 67 68 51 62 67 54 55 62 
51 54 62 185 198 195 67 69 83 
66 69 62 62 69 67 62 55 66 
212 209 217 212 202 209 186 195 202 
186 185 195 187 185 186 68 83 86 
66 55 61 223 212 220 212 217 220 
207 202 212 207 194 202 194 186 202 
211 212 223 207 212 211 178 186 194 
178 187 186 88 64 68 55 60 61 
222 211 223 67 83 68 199 189 203 
184 189 193 74 72 82 169 172 173 
84 73 77 82 85 87 162 174 160 
239 248 231 247 231 244 231 248 244 
217 236 220 246 247 249 247 244 249 
251 250 249 250 246 249 82 72 85 
164 161 160 160 174 164 82 101 110 
159 148 161 159 161 164 109 101 103 
109 103 119 139 134 161 148 139 161 
109 119 134 84 111 122 122 111 127 
111 169 127 127 169 173 132 122 127 
176 178 191 178 176 155 176 163 155 
229 221 227 216 221 229 151 127 173 
215 221 216 203 205 216 205 215 216 
197 215 205 189 205 203 189 197 205 
189 192 197 182 192 189 182 191 192 
181 182 189 156 191 182 156 176 191 
163 176 156 71 78 81 70 65 71 
209 219 217 209 218 219 198 218 209 
202 198 209 202 195 198 192 191 206 
128 123 144 94 91 128 72 75 85 
240 241 235 228 235 232 225 234 238 
175 181 184 175 162 181 163 147 155 
147 144 155 147 128 144 81 128 147 
94 128 81 243 232 235 242 232 243 
234 233 242 225 230 234 184 181 189 
94 81 78 79 85 75 75 70 79 
242 233 232 234 230 233 233 229 227 
230 229 233 230 216 229 181 167 182 
167 156 182 146 163 156 146 147 163 
115 71 81 233 227 232 9 7 11 
4 7 9 198 204 218 196 210 226 
213 196 226 223 220 228 228 220 240 
240 220 237 61 74 66 86 83 105 
91 86 105 144 136 177 177 136 171 
177 171 185 177 185 187 213 200 196 
214 213 226 218 214 224 219 224 236 
217 219 236 220 236 237 69 66 74 
69 110 105 83 69 105 171 180 185 
180 168 183 185 180 190 180 183 190 
185 190 198 190 183 200 190 200 204 
198 190 204 204 200 213 204 213 214 
204 214 218 218 224 219 79 70 71 
3 4 9 33 44 41 33 26 44 
26 17 44 17 11 20 26 11 17 
11 7 20 7 4 8 53 47 56 
47 50 56 53 36 47 48 36 53 
41 44 48 48 44 36 24 36 44 
17 24 44 17 20 24 49 43 46 
30 43 49 30 31 43 31 29 43 
52 49 46 28 49 52 28 30 49 
18 31 30 15 29 31 15 31 18 
14 15 18 28 18 30 4 10 8 
36 24 32 2 0 6 59 42 52 
19 12 23 5 12 19 19 6 5 
0 5 6 0 1 5 0 2 1 
42 59 64 38 34 37 23 33 34 
23 26 33 23 12 26 12 11 26 
5 3 12 1 2 10 4 1 10 
42 64 56 37 41 48 37 34 41 
33 41 34 9 11 12 3 9 12 
4 3 1 56 50 42 183 188 200 
179 175 184 228 240 235 162 175 179 
179 184 188 179 188 183 226 225 239 
239 225 238 241 240 250 128 131 123 
123 136 144 174 162 179 174 179 183 
214 226 239 237 246 240 250 240 246 
91 105 131 91 131 128 123 131 136 
168 164 174 168 174 183 224 214 231 
214 239 231 224 231 247 224 247 236 
246 236 247 237 236 246 74 82 69 
69 82 110 105 110 112 131 105 112 
131 112 136 136 112 129 136 129 159 
159 129 148 136 159 171 74 63 72 
61 63 74 226 210 225 196 199 210 
196 193 199 200 193 196 200 188 193 
178 177 187 177 178 155 155 144 177 
88 86 91 63 75 72 227 222 228 
222 223 228 210 203 225 210 199 203 
193 189 199 188 184 193 94 88 91 
78 88 94 232 227 228 225 203 230 
230 203 216 63 70 75 88 68 86 
241 250 248 248 250 251 239 245 248 
239 238 245 245 243 241 238 243 245 
235 241 243 238 242 243 162 158 157 
238 234 242 162 157 167 93 85 79 
167 154 156 152 154 167 157 152 167 
154 146 156 115 147 146 116 115 146 
81 147 115 150 146 154 146 150 143 
116 146 143 97 115 116 108 116 98 
108 97 116 106 116 143 106 98 116 
162 167 181 97 71 115 97 79 71 
153 158 160 173 172 170 98 89 100 
100 108 98 132 127 151 151 173 170 
77 73 89 73 84 122 92 73 122 
122 132 92 166 165 170 170 165 151 
89 73 100 100 73 92 137 132 165 
165 132 151 140 137 165 140 165 166 
150 140 166 99 100 92 99 92 137 
137 92 132 108 100 99 108 99 113 
107 108 113 125 137 140 125 150 154 
125 140 150 79 97 107 107 97 108 
145 125 152 125 154 152 93 79 107 
158 145 157 157 145 152 93 107 90 
245 241 248 87 85 90 87 90 95 
85 93 90 158 162 160 
POINT_DATA 252
SCALARS k float
LOOKUP_TABLE default
3.01745 -1.08999 0.623153 1.40458 0.927891 -0.338819 0.213168 0.816394 0.00771403 
-0.357716 -0.0723644 0.0920774 -0.00306058 -0.00431758 -0.0484478 -0.122252 0.236595 -0.0812992 
0.0618266 -0.0970769 -0.0207542 -0.241281 0.00454253 -0.0259787 -0.14388 -0.0294091 0.0023163 
-0.0306818 0.0410087 -0.293995 0.19741 0.0555567 0.404069 0.0256506 0.0034461 0.286053 
0.0905362 0.00215864 -0.0187272 -0.0358357 -0.0237483 0.00702742 -0.0177378 0.262655 -0.165927 
-0.0422743 0.276356 0.344347 -0.320038 0.0895718 0.0211323 0.395706 0.0472769 0.554272 
0.0850093 -0.0994127 0.292308 -0.656202 -0.0407186 0.163817 -0.0205103 -0.0102295 -0.0576949 
0.00139368 -0.0407172 -0.161655 -0.0809612 0.236077 0.0109975 -0.340567 -0.142563 -0.151532 
0.00156748 0.17385 -0.08506 0.00799453 0.624945 0.50601 0.0331876 -0.11716 0.634133 
0.00187266 -0.384561 -0.0592573 1.50423 0.0612779 0.0390251 0.0538568 -0.00567144 0.0371742 
0.00974357 -0.14991 -0.0478255 -0.02135 -0.00374228 0.152092 0.181748 -1.03477 -0.157787 
-0.042672 -0.172498 -0.0965197 0.0541674 -0.0968585 0.251897 -0.857888 -0.0300072 -0.0165599 
-0.691811 0.593445 -1.31341 0.487271 -0.0895568 -0.162105 -0.00831699 -0.709201 -0.448182 
0.147048 0.0690103 0.168983 -0.0121011 0.0530546 0.0164582 0.227228 -0.171413 -0.116229 
0.207651 0.209785 -0.287199 -0.106733 0.694777 -0.0411966 -0.00232875 0.0219363 3.06974 
-0.0051744 -0.42028 -0.0632734 -0.125862 0.208709 -0.179097 0.0911665 0.306639 -0.127943 
-0.120216 -0.089327 -1.14109 -0.0230321 -0.0409614 0.161594 -0.343385 0.0915932 0.108853 
0.13508 -1.10397 0.0820431 -0.124939 -0.0612041 0.0535246 -1.23949 -0.0632813 -0.081072 
0.0970144 0.104713 -0.548262 -0.00943327 -0.0282844 -0.516554 -0.256728 0.581901 0.263064 
-0.409848 0.578412 1.98543 -0.217395 0.225084 -0.00776953 0.0231054 0.00121522 -0.0640172 
0.188381 -0.15448 -0.0905825 -0.193661 -0.0284462 0.00307155 0.128484 -0.00243223 0.00520074 
-0.293158 -0.155882 0.0243872 -0.96357 -0.000447392 -0.0563434 0.212389 -0.0124059 0.779564 
0.520503 0.00266832 -0.0992945 0.173787 0.138054 -0.029855 0.0714181 -0.0167391 0.105233 
0.00242448 0.0792297 0.340922 0.0284658 -0.0307823 0.0351896 -0.0358109 -0.146548 0.30502 
-0.0376056 0.0992463 0.0901633 0.0355046 0.0162944 0.41879 0.0492313 -0.0497698 -0.230103 
0.0176784 -0.0522759 0.00321734 -0.00519568 -0.422939 -0.144779 -0.0387721 0.106844 0.744059 
0.0184902 -0.0206861 -0.0640654 -0.0211496 -0.214431 -0.000768781 -0.0093832 1.20185 0.709334 
-0.337289 0.830277 1.26348 0.0661529 0.0533571 -0.976614 2.09407 -1.31976 1.54431 

FIELD FieldData 7
h 1 252 float
0.115475 0.420012 1.3571 -0.0987242 5.53153 -0.203568 0.228305 0.490254 1.33524 
-0.213047 1.39004 -0.321571 0.178455 0.910363 1.54731 1.96677 2.05739 -0.629869 
1.62579 -0.280257 -0.0345798 -0.533537 1.70222 -0.485767 -0.533835 1.99124 -0.539174 
1.48504 1.98869 -0.826313 2.10856 2.3912 1.8312 -1.11532 -1.03616 1.30829 
-0.851027 -0.559884 -0.342973 1.51088 1.65847 -0.478274 1.00426 1.69686 -0.56968 
-0.427771 1.44705 1.44149 -0.649843 1.81922 1.05489 1.43088 1.60386 -0.690478 
-0.880428 -0.182931 1.1705 1.47136 0.763039 1.165 -0.409766 -0.298917 -0.160839 
-0.318415 0.928979 0.0330404 -0.0107623 2.08137 0.900469 2.93102 -0.361882 -0.582175 
-0.0812221 1.32725 0.128532 -0.344517 -1.67483 0.869276 0.190072 -0.211848 0.045756 
-1.004 0.395417 0.996472 1.7261 -0.499099 0.382431 -1.59671 0.125091 0.959647 
-1.47127 -0.495065 3.67791 -0.54629 -0.653225 0.241907 -0.0324849 1.60845 1.02144 
2.21926 0.299993 0.0895144 1.48864 -0.564881 4.23462 0.0711565 -1.84878 0.1132 
-1.54152 5.44474 1.95826 0.256103 -0.083169 3.32757 -1.66973 -1.4511 -1.09535 
5.34615 3.50693 -2.14167 -1.94935 7.1412 2.10836 -0.588055 2.78134 1.03894 
2.0009 1.86203 -1.33824 -0.364636 -1.34823 -0.941844 3.82442 -0.725342 2.67889 
-1.53337 -0.00743175 3.28997 1.60794 2.15567 0.159589 1.77487 3.04824 -1.3092 
0.390015 0.398155 -1.12556 -0.917046 4.53642 -0.837677 1.20733 2.11899 -2.32996 
-1.03825 0.383148 0.623141 -0.160883 -2.13018 -2.15263 3.08726 -4.28316 -2.60768 
-1.94029 0.00752404 -0.595455 2.70038 2.47057 -1.47169 0.571374 0.434185 0.512647 
1.43463 -1.20893 1.514 -1.0017 -1.18022 0.688078 0.975633 0.937887 -0.795259 
-0.833832 -0.957616 1.9632 -0.568769 -0.80685 1.81608 1.49597 1.26301 -0.763693 
-0.434803 -1.00506 1.07262 1.30377 -0.825875 1.34726 1.70706 -0.468565 0.010742 
1.25742 -0.542787 -0.419121 1.43166 1.50125 -0.463964 -0.690632 -0.95284 1.48345 
1.23108 1.43375 2.38218 -0.606445 1.37935 1.81845 -0.202859 -0.272138 -0.72322 
-0.655043 1.83271 -0.710915 1.96404 1.30155 2.04932 1.61726 1.38126 -0.329637 
-0.505891 -0.0777121 1.97725 0.594807 -0.348489 -0.235109 -0.130388 1.58102 0.0181583 
0.0523081 1.07039 2.52629 1.13551 0.236636 0.367072 0.663748 1.2778 0.445818 
0.629843 0.334319 0.115635 1.06867 0.246749 0.0490375 1.52959 1.036 0.205921 

kmin 1 252 float
0.693366 0.910585 1.91354 1.16503 7.51968 1.36861 2.20397 1.20181 2.34988 
1.25381 2.1012 2.14259 2.82563 2.51151 2.46024 2.74294 3.17791 1.77242 
2.88717 1.89477 1.38261 1.27026 2.70776 1.47872 1.41391 2.84407 1.68182 
2.65628 2.55797 0.408196 2.79716 2.56215 2.8474 0.362589 0.197289 2.45569 
0.591011 1.11069 1.42349 2.04818 2.01441 1.17097 1.30744 2.94995 1.18767 
1.19929 2.0814 2.17097 0.731525 2.53901 1.90024 1.74665 2.1742 -0.382353 
0.533235 1.63305 1.27714 2.10481 1.45039 1.58865 1.05295 1.24733 1.50053 
0.87725 1.4305 1.59433 1.6294 2.99968 1.20992 6.51885 0.341031 -0.131373 
0.839688 3.94309 1.3389 0.365161 -1.24223 2.62291 0.929695 0.269515 0.472742 
-0.0248607 2.29174 2.36104 4.23451 0.350255 1.43147 0.822101 0.754882 2.62528 
0.490553 0.627458 7.93343 0.585309 0.146048 1.18733 2.09021 5.129 2.27154 
4.53197 1.5214 2.41473 2.38815 1.30359 7.11974 2.01346 -0.298249 0.738223 
0.299116 9.27332 7.32638 0.921162 1.1437 6.30025 -0.100563 -0.257321 -0.222616 
9.5008 5.89509 -0.946118 -0.745379 12.6227 5.0652 0.698017 4.89814 2.04294 
3.59616 4.33554 0.31884 1.91853 0.79083 0.992752 8.32925 0.0436643 6.63863 
-0.739608 1.26121 6.6382 2.70513 5.10549 1.77381 2.75856 4.73875 0.074074 
0.993018 1.43658 -0.19769 0.0329237 6.66716 2.11155 2.21062 5.32177 0.651894 
1.37835 4.45274 1.20975 0.213642 0.400345 0.768354 9.30456 1.04707 1.02116 
0.110892 0.445647 1.92167 6.11758 4.63121 0.0110042 3.14245 1.23646 1.73897 
2.70156 -0.792916 3.61182 0.503671 0.238371 1.29913 1.81132 1.72888 0.688293 
-0.126622 0.461818 5.29575 1.19627 0.798404 2.36346 1.62162 1.53824 1.04615 
1.27807 -0.0234529 1.33586 1.54407 0.737063 1.44229 2.03244 1.11371 1.85028 
1.46269 1.18516 1.35556 1.94182 1.87128 1.27193 0.85786 0.434868 1.59656 
1.61821 1.98004 2.76597 0.848421 1.74384 2.12392 1.47351 1.10346 -0.103968 
0.783863 2.19731 -0.215048 2.29508 1.94303 2.28175 2.19558 2.0396 0.654124 
0.863264 1.47296 2.40514 1.65153 0.191148 1.57486 1.38677 2.08782 0.777397 
2.02493 1.56239 3.43502 1.84976 2.18585 2.51127 1.61641 1.73285 1.51797 
1.01577 1.72477 1.29055 1.28957 0.894624 1.28625 2.31153 1.56311 1.63118 

kmax 1 252 float
-0.462417 -0.0705606 0.800667 -1.36247 3.54338 -1.77575 -1.74736 -0.221303 0.320592 
-1.6799 0.678873 -2.78573 -2.46872 -0.690786 0.634377 1.19061 0.936865 -3.03216 
0.364417 -2.45528 -1.45177 -2.33733 0.696679 -2.45026 -2.48158 1.13841 -2.76017 
0.313789 1.41941 -2.06082 1.41996 2.22024 0.815004 -2.59323 -2.26961 0.160889 
-2.29306 -2.23046 -2.10943 0.973587 1.30253 -2.12752 0.701083 0.443761 -2.32703 
-2.05483 0.812707 0.712011 -2.03121 1.09942 0.209531 1.11511 1.03352 -0.998604 
-2.29409 -1.99891 1.06386 0.837902 0.0756932 0.741351 -1.87248 -1.84517 -1.8222 
-1.51408 0.427456 -1.52825 -1.65093 1.16307 0.591018 -0.656807 -1.0648 -1.03298 
-1.00213 -1.28859 -1.08184 -1.05419 -2.10743 -0.884355 -0.549552 -0.693211 -0.38123 
-1.98314 -1.50091 -0.3681 -0.782309 -1.34845 -0.666611 -4.01552 -0.5047 -0.705991 
-3.4331 -1.61759 -0.577619 -1.67789 -1.4525 -0.703514 -2.15518 -1.91211 -0.228651 
-0.093457 -0.921419 -2.2357 0.589132 -2.43335 1.34949 -1.87115 -3.39931 -0.511823 
-3.38216 1.61617 -3.40987 -0.408955 -1.31004 0.354877 -3.2389 -2.64487 -1.96808 
1.19151 1.11876 -3.33722 -3.15332 1.65974 -0.848488 -1.87413 0.664532 0.034946 
0.405644 -0.61148 -2.99531 -2.6478 -3.4873 -2.87644 -0.680401 -1.49435 -1.28085 
-2.32714 -1.27607 -0.0582583 0.510757 -0.794158 -1.45463 0.79118 1.35773 -2.69246 
-0.212989 -0.640273 -2.05343 -1.86701 2.40569 -3.78691 0.204035 -1.0838 -5.31181 
-3.45485 -3.68644 0.0365324 -0.535408 -4.6607 -5.07362 -3.13004 -9.61338 -6.23652 
-3.99148 -0.430599 -3.11258 -0.716822 0.309921 -2.95438 -1.9997 -0.368095 -0.713674 
0.167694 -1.62495 -0.583818 -2.50707 -2.59881 0.0770272 0.139946 0.146891 -2.27881 
-1.54104 -2.37705 -1.36934 -2.33381 -2.4121 1.26871 1.37033 0.987781 -2.57354 
-2.14768 -1.98666 0.809372 1.06347 -2.38881 1.25222 1.38169 -2.05084 -1.8288 
1.05215 -2.27073 -2.1938 0.92151 1.13123 -2.19986 -2.23912 -2.34055 1.37034 
0.843941 0.887462 1.99839 -2.06131 1.01485 1.51297 -1.87923 -1.64774 -1.34247 
-2.09395 1.46811 -1.20678 1.63299 0.66008 1.8169 1.03895 0.722927 -1.3134 
-1.87505 -1.62838 1.54936 -0.461914 -0.888126 -2.04508 -1.64755 1.07423 -0.74108 
-1.92031 0.578383 1.61757 0.421256 -1.71257 -1.77712 -0.288918 0.822751 -0.626332 
0.24392 -1.05614 -1.05928 0.847761 -0.401126 -1.18818 0.747649 0.508892 -1.21934 

hks 16 252 double
0.75892282128 0.76369274938 0.76848214958 0.77329557786 0.77813809614 0.78301516834 0.78793254465 0.79289613624 0.79791188341 
0.80298562013 0.80812293819 0.81332905418 0.8186086825 0.82396591733 0.82940412615 0.83492585737 0.75481699566 0.76173479688 
0.76859278808 0.77539273433 0.78213719209 0.78882938519 0.79547307752 0.80207244559 0.80863195356 0.81515623286 0.82164996793 
0.82811778912 0.83456417346 0.84099335348 0.84740923431 0.85381531897 0.73578776281 0.74103947884 0.74627834013 0.75151167464 
0.7567470762 0.76199228439 0.76725507117 0.77254313532 0.77786400487 0.7832249474 0.78863288761 0.79409433136 0.79961529511 
0.80520123984 0.81085700867 0.8165867676 0.73098305049 0.73815121753 0.74531486838 0.75247248299 0.75962284365 0.76676499939 
0.77389823138 0.78102201895 0.78813600497 0.79523995968 0.80233374159 0.80941725454 0.81649040024 0.82355302601 0.83060486832 
0.83764549322 0.69053835418 0.69875588954 0.70701945409 0.71532142659 0.72365424046 0.73201043305 0.74038269885 0.74876394456 
0.75714734381 0.76552638882 0.77389493601 0.78224724262 0.79057799157 0.79888230227 0.80715572583 0.81539422372 0.73078658826 
0.73608925176 0.74141618614 0.74677322081 0.75216630849 0.75760142324 0.76308445591 0.76862110771 0.7742167825 0.77987647886 
0.78560468329 0.79140526609 0.79728138223 0.80323537933 0.8092687156 0.81538189039 0.68277129887 0.68703738942 0.69140872353 
0.69589050393 0.70048799712 0.70520645916 0.71005105264 0.71502675547 0.72013826294 0.72538988441 0.73078543684 0.73632813732 
0.74202049721 0.7478642207 0.75386011039 0.76000798285 0.57197901944 0.5788080998 0.58581018117 0.59298581125 0.60033476659 
0.60785604671 0.61554788004 0.62340773959 0.63143236562 0.63961779233 0.64795937573 0.65645181958 0.66508919696 0.67386496555 
0.68277197514 0.69180246727 0.68371780195 0.68921794794 0.69487442256 0.70068250957 0.70663757767 0.71273508659 0.71897058178 
0.7253396789 0.73183803925 0.73846133757 0.74520522329 0.75206527652 0.75903695986 0.76611556718 0.77329617059 0.7805735669 
0.67383567884 0.68057794361 0.68741541725 0.69434612224 0.70136768409 0.70847735559 0.71567204833 0.72294836865 0.73030265466 
0.7377310112 0.74522933953 0.752793359 0.76041861888 0.76810049863 0.77583419678 0.78361470862 0.78452135216 0.78989005697 
0.79528151228 0.80069659369 0.80613599057 0.81160019854 0.81708952755 0.82260412371 0.82814400149 0.83370908301 0.83929924 
0.84491433441 0.85055425342 0.8562189354 0.86190838366 0.86762266603 0.65161813436 0.65396879182 0.65646716943 0.65912319536 
0.6619473896 0.66495065825 0.66814406535 0.67153858901 0.6751448687 0.67897295106 0.68303204067 0.68733026243 0.69187444103 
0.69666990261 0.70172030254 0.70702748299 0.69324889853 0.69769061788 0.70226812023 0.70697973342 0.71182375232 0.71679846196 
0.72190214534 0.72713307479 0.73248948628 0.73796953725 0.74357124913 0.74929243698 0.75513062929 0.76108298176 0.76714618989 
0.77331640506 0.71280176292 0.71195582085 0.71131499972 0.71089836254 0.7107237176 0.71080752921 0.71116484015 0.71180920183 
0.7127526093 0.7140054388 0.71557638677 0.7174724105 0.71969867173 0.72225848556 0.7251532782 0.72838255738 0.71634669305 
0.72002722955 0.72385634408 0.72782664734 0.731931449 0.73616488769 0.74052202504 0.7449989017 0.74959255518 0.75430099997 
0.75912317189 0.76405883967 0.76910848744 0.7742731725 0.77955436364 0.78495376516 0.51365723367 0.51905130417 0.52455994742 
0.53018905669 0.53594458235 0.54183248182 0.54785867149 0.55402897959 0.56034909811 0.56682453171 0.57346054137 0.58026208059 
0.5872337223 0.5943795749 0.60170318684 0.60920743972 0.542675516 0.54657986103 0.55068978999 0.55501214884 0.55955373847 
0.56432120213 0.56932090146 0.57455878349 0.58004024135 0.58576997121 0.59175182861 0.59798868684 0.60448230052 0.61123317723 
0.61824046026 0.62550182524 0.58301753349 0.58288458247 0.5828270669 0.58286547856 0.58302076964 0.58331419861 0.58376716638 
0.58440104228 0.58523698006 0.58629572418 0.58759740752 0.58916134217 0.59100580553 0.59314782457 0.59560296172 0.59838510582 
0.55618805573 0.55855667788 0.56104630304 0.56366008672 0.56640160411 0.5692748915 0.57228447838 0.57543540814 0.57873324463 
0.58218406267 0.58579442011 0.58957131005 0.59352209169 0.59765439926 0.60197602907 0.60649480542 0.55095002222 0.5550099678 
0.55927749729 0.56375692551 0.56845204543 0.57336607144 0.5785015825 0.58386046571 0.58944386065 0.59525210521 0.60128468368 
0.60754017782 0.61401622213 0.62070946436 0.62761553267 0.63472901078 0.48675021172 0.4899533156 0.49330353332 0.49681450817 
0.50049992867 0.50437342902 0.50844848225 0.51273828497 0.51725563254 0.52201278406 0.52702131688 0.53229197121 0.53783448584 
0.54365742697 0.54976801267 0.5561719363 0.54617891768 0.54608622052 0.54608135103 0.54616976567 0.54635733691 0.54665032415 
0.54705534646 0.54757935865 0.54822963097 0.54901373202 0.54993951356 0.55101509525 0.5522488465 0.55364936246 0.55522543081 
0.55698598646 0.52792066808 0.53088979103 0.53387928267 0.53689084022 0.53992726514 0.54299246711 0.54609145291 0.54923030003 
0.55241611481 0.55565697475 0.55896185471 0.56234053669 0.5658035032 0.56936181427 0.57302696878 0.57681075097 0.58791433928 
0.59134622751 0.59490125627 0.59857373387 0.60235759995 0.60624656258 0.61023423888 0.61431429609 0.61848058971 0.6227272958 
0.62704903427 0.63144098055 0.63589896309 0.64041954429 0.64500008315 0.64963877797 0.45170776227 0.45288461713 0.4541146745 
0.45541083419 0.45678706999 0.45825837278 0.45984067946 0.46155078606 0.463406243 0.46542523044 0.46762641191 0.47002876464 