# vtk DataFile Version 5.1
vtk output
ASCII
DATASET POLYDATA
POINTS 252 float
-0.129463 -0.325135 -0.212333 -0.068045 -0.172582 -0.185343 0.067314 -0.034106 -0.180688 
0.013143 0.112041 -0.180469 -0.101547 0.003688 -0.176202 -0.372114 -0.030593 -0.173208 
0.165955 0.283107 -0.16305 0.163858 -0.207046 -0.170145 -0.27503 0.003493 -0.164164 
-0.244845 -0.181763 -0.16735 0.053521 -0.240546 -0.177709 -0.198452 -0.405674 -0.177416 
-0.233516 -0.357637 -0.191624 -0.343584 0.216115 -0.171221 0.175112 0.166128 -0.168546 
0.3843 0.198549 -0.156738 -0.200021 0.287025 -0.145738 -0.077368 0.262278 -0.174699 
0.176649 -0.050115 -0.164856 -0.48592 -0.144356 -0.139235 -0.509991 0.23486 -0.132789 
-0.25169 -0.403036 -0.197454 -0.403104 -0.215257 -0.160745 0.049927 -0.265586 -0.135343 
-0.281741 -0.224043 -0.149102 0.358561 -0.058049 -0.14922 -0.373387 0.039404 -0.154414 
0.474385 0.191581 -0.143202 -0.063741 -0.327173 -0.122527 0.613048 0.035343 -0.141553 
0.395655 -0.20228 -0.146362 -0.491316 0.044358 -0.118662 -0.534662 -0.039053 -0.115171 
0.600236 -0.066817 -0.140084 -0.37639 0.274365 -0.141322 0.668095 0.159805 -0.114796 
0.25919 0.303709 -0.117906 0.690582 -0.149345 -0.117439 0.37658 -0.266497 -0.102863 
-0.312279 -0.033397 -0.12749 -0.21533 -0.226665 -0.12999 0.038913 0.33879 -0.144985 
0.238251 -0.268442 -0.14657 -0.363206 -0.230085 -0.109132 -0.54585 -0.224792 -0.107341 
0.751687 0.052092 -0.118742 0.576934 -0.176705 -0.123305 0.455328 0.228737 -0.115038 
-0.228444 -0.200013 -0.098263 -0.448125 0.324747 -0.109372 -0.364318 0.297972 -0.082482 
-0.04352 -0.112304 -0.105425 -0.101495 -0.201306 -0.112506 0.14435 0.348555 -0.091748 
-0.112189 -0.364311 -0.212104 -0.439595 -0.389425 -0.115905 -0.402342 -0.338405 -0.084312 
-0.612202 0.131961 -0.116446 0.06723 -0.031591 -0.0956 -0.3571 -0.098818 -0.123346 
-0.265646 0.294227 -0.10969 0.811716 -0.045884 -0.110579 -0.225303 -0.095723 -0.08652 
0.025097 -0.226546 -0.102198 -0.672829 0.095297 -0.070365 -0.421019 -0.248337 -0.112824 
-0.475477 -0.244456 -0.065307 -0.49909 0.393557 -0.081431 -0.441209 -0.432804 -0.046573 
-0.500502 -0.30515 -0.09214 0.276156 0.282377 -0.074481 0.514003 0.194719 -0.068907 
0.824056 0.12993 -0.098233 0.213075 -0.276212 -0.094997 0.126703 -0.161593 -0.085629 
-0.029839 0.331407 -0.094699 0.634108 0.19035 -0.086517 -0.62093 -0.100358 -0.084337 
0.632979 -0.174177 -0.064068 -0.052982 0.009446 -0.092302 0.110716 0.060479 -0.077389 
0.293836 -0.098972 -0.074969 0.299796 -0.234407 -0.074119 -0.605962 -0.265144 -0.066415 
-0.030209 0.293192 -0.065942 -0.606302 0.286471 -0.097689 -0.324378 0.084773 -0.087561 
-0.653715 0.27416 -0.035693 0.832036 -0.059175 -0.057566 0.745281 -0.085142 -0.107495 
0.501396 -0.230607 -0.096679 -0.360747 0.093689 -0.087583 -0.196414 -0.001815 -0.080904 
0.273832 0.059812 -0.069587 -0.285476 0.262514 -0.063313 0.806772 0.029219 -0.073419 
-0.238294 0.136823 -0.049266 0.77979 0.038711 -0.053772 -0.541074 0.484295 -0.029433 
-0.447863 -0.165608 -0.074528 0.534168 -0.001598 -0.063701 -0.016146 0.212801 -0.050262 
0.285286 0.200428 -0.054093 -0.402807 0.386806 -0.078255 0.66788 0.151388 -0.054089 
0.494448 0.100408 -0.058893 0.142994 0.310185 -0.055276 0.552504 -0.190427 -0.059352 
-0.257195 0.214029 -0.048093 -0.474846 0.507886 -0.060996 0.728878 -0.048085 -0.048623 
-0.413621 -0.017987 -0.057681 0.797701 0.144575 -0.040649 -0.341518 0.574772 -0.005194 
-0.497252 0.552254 0.00595 -0.392267 0.124966 -0.036807 -0.650238 -0.176305 -0.008093 
-0.231812 -0.433636 -0.039198 -0.350589 0.594762 0.006751 -0.695239 0.028764 0.033606 
-0.667907 0.24403 0.062053 -0.366418 0.441838 -0.034073 -0.069918 -0.371002 -0.073307 
-0.615953 -0.299992 -0.034919 -0.371894 0.295066 -0.044055 -0.379499 0.222701 0.028404 
-0.67732 -0.053008 -0.037515 -0.529266 -0.375625 0.040542 -0.515761 0.519075 0.061698 
-0.079747 -0.319156 -0.04154 -0.346585 0.582806 0.029485 -0.183525 0.194209 0.038501 
-0.066357 -0.369541 0.090541 -0.613295 -0.291883 0.062985 -0.405837 -0.323948 0.031702 
-0.440791 -0.1312 0.055768 -0.353127 0.242232 0.073254 0.752354 0.147314 0.064163 
-0.405564 0.012025 0.03167 0.874274 0.104461 0.037523 0.746433 -0.071417 0.044453 
-0.332005 0.073378 0.081676 0.106569 0.161944 0.044669 -0.197063 0.09636 0.043175 
0.019319 0.180867 0.044139 0.840282 -0.059277 0.064517 -0.274131 0.194865 0.070701 
-0.473925 -0.228076 0.047884 -0.447743 -0.232808 0.079445 -0.266568 0.278983 0.07038 
-0.279359 -0.423635 0.157429 -0.18458 -0.330844 0.066972 0.644807 0.046125 0.06163 
0.798657 0.015549 0.049815 -0.588125 0.372007 0.054586 -0.170621 -0.030247 0.068823 
0.488074 -0.198097 0.060868 -0.357761 0.441846 0.042566 0.642513 0.14004 0.055918 
0.864896 0.100619 0.090868 -0.25284 -0.347169 0.000339 0.393173 0.146662 0.063079 
0.57256 -0.215227 0.059897 -0.558509 -0.248028 0.112535 0.145344 0.28145 0.046251 
0.015456 -0.045028 0.088641 0.356048 -0.112181 0.069424 -0.660912 -0.069332 0.08247 
0.224112 -0.1883 0.071657 0.701362 -0.168035 0.055423 0.440488 0.026443 0.077068 
-0.169474 -0.186383 0.081055 0.396011 0.216731 0.07706 0.167682 0.327437 0.068094 
0.254419 -0.269359 0.075681 0.050321 -0.147736 0.083415 0.39295 -0.242735 0.079616 
-0.389458 -0.199593 0.090002 -0.311563 -0.226826 0.087319 -0.001399 0.300443 0.068658 
-0.627304 0.256113 0.117181 -0.371749 0.312238 0.102491 0.754632 -0.121256 0.080881 
-0.407537 0.383356 0.110001 -0.51034 -0.329168 0.099641 -0.273574 0.28887 0.111992 
0.143181 -0.23656 0.082134 -0.030673 -0.208824 0.097047 -0.614156 -0.173937 0.088072 
0.683072 -0.181025 0.104056 -0.153897 -0.227188 0.117169 -0.493692 -0.265573 0.092237 
-0.303114 -0.069859 0.11699 0.043853 0.338332 0.112708 -0.436532 -0.438175 0.052945 
0.526607 0.196852 0.096438 -0.454179 0.466764 0.100833 -0.402184 -0.339511 0.098789 
0.816931 0.024529 0.090365 -0.35778 -0.227399 0.138443 -0.106973 0.307383 0.104103 
0.787111 -0.040516 0.119961 -0.655678 0.110469 0.110956 0.360511 0.240907 0.147944 
0.289263 -0.294505 0.1191 -0.416119 -0.400851 0.132761 -0.595341 0.145812 0.144235 
0.712535 -0.096705 0.116692 0.060836 -0.270355 0.110248 0.583242 0.030955 0.145017 
0.561729 -0.231811 0.110977 -0.22079 -0.354603 0.164224 0.471923 -0.241581 0.112684 
-0.525415 0.338767 0.12136 0.347303 0.26426 0.116804 -0.432351 0.039591 0.134052 
0.615745 -0.11106 0.136568 0.622406 0.151893 0.126931 -0.553153 0.047163 0.138167 
-0.489689 -0.107465 0.138491 0.457545 -0.165777 0.142251 -0.173414 -0.173095 0.154925 
0.357258 -0.230699 0.150922 -0.077677 -0.204957 0.15339 0.183721 0.319668 0.139199 
-0.410468 0.27088 0.150703 0.009549 0.311104 0.153452 0.073404 -0.2281 0.165381 
-0.234861 -0.077486 0.148368 -0.444926 0.186774 0.162949 0.204234 -0.236635 0.153048 
-0.368728 -0.075839 0.1586 -0.260741 0.024878 0.156648 -0.049153 -0.333284 0.086558 
0.125741 -0.080219 0.163446 -0.39368 -0.361504 0.13439 -0.364645 0.223072 0.160761 
-0.186156 0.27317 0.143177 -0.133483 -0.01415 0.156373 -0.032336 0.005646 0.168906 
0.131935 -0.272614 0.143233 0.24702 0.011114 0.159211 0.426484 0.167318 0.159916 
-0.053806 -0.150601 0.168715 -0.003639 0.239901 0.176977 0.240899 0.22933 0.167577 
0.385048 0.045466 0.162588 -0.156322 0.224872 0.164105 -0.112727 -0.32718 0.182138 
-0.190797 -0.368557 0.225767 -0.197475 -0.41568 0.162736 -0.118481 -0.36782 0.231 

POLYGONS 501 1500
OFFSETS vtktypeint64
0 3 6 9 12 15 18 21 24 
27 30 33 36 39 42 45 48 51 
54 57 60 63 66 69 72 75 78 
81 84 87 90 93 96 99 102 105 
108 111 114 117 120 123 126 129 132 
135 138 141 144 147 150 153 156 159 
162 165 168 171 174 177 180 183 186 
189 192 195 198 201 204 207 210 213 
216 219 222 225 228 231 234 237 240 
243 246 249 252 255 258 261 264 267 
270 273 276 279 282 285 288 291 294 
297 300 303 306 309 312 315 318 321 
324 327 330 333 336 339 342 345 348 
351 354 357 360 363 366 369 372 375 
378 381 384 387 390 393 396 399 402 
405 408 411 414 417 420 423 426 429 
432 435 438 441 444 447 450 453 456 
459 462 465 468 471 474 477 480 483 
486 489 492 495 498 501 504 507 510 
513 516 519 522 525 528 531 534 537 
540 543 546 549 552 555 558 561 564 
567 570 573 576 579 582 585 588 591 
594 597 600 603 606 609 612 615 618 
621 624 627 630 633 636 639 642 645 
648 651 654 657 660 663 666 669 672 
675 678 681 684 687 690 693 696 699 
702 705 708 711 714 717 720 723 726 
729 732 735 738 741 744 747 750 753 
756 759 762 765 768 771 774 777 780 
783 786 789 792 795 798 801 804 807 
810 813 816 819 822 825 828 831 834 
837 840 843 846 849 852 855 858 861 
864 867 870 873 876 879 882 885 888 
891 894 897 900 903 906 909 912 915 
918 921 924 927 930 933 936 939 942 
945 948 951 954 957 960 963 966 969 
972 975 978 981 984 987 990 993 996 
999 1002 1005 1008 1011 1014 1017 1020 1023 
1026 1029 1032 1035 1038 1041 1044 1047 1050 
1053 1056 1059 1062 1065 1068 1071 1074 1077 
1080 1083 1086 1089 1092 1095 1098 1101 1104 
1107 1110 1113 1116 1119 1122 1125 1128 1131 
1134 1137 1140 1143 1146 1149 1152 1155 1158 
1161 1164 1167 1170 1173 1176 1179 1182 1185 
1188 1191 1194 1197 1200 1203 1206 1209 1212 
1215 1218 1221 1224 1227 1230 1233 1236 1239 
1242 1245 1248 1251 1254 1257 1260 1263 1266 
1269 1272 1275 1278 1281 1284 1287 1290 1293 
1296 1299 1302 1305 1308 1311 1314 1317 1320 
1323 1326 1329 1332 1335 1338 1341 1344 1347 
1350 1353 1356 1359 1362 1365 1368 1371 1374 
1377 1380 1383 1386 1389 1392 1395 1398 1401 
1404 1407 1410 1413 1416 1419 1422 1425 1428 
1431 1434 1437 1440 1443 1446 1449 1452 1455 
1458 1461 1464 1467 1470 1473 1476 1479 1482 
1485 1488 1491 1494 1497 1500 
CONNECTIVITY vtktypeint64
4 1 9 22 5 8 81 100 93 
35 27 47 55 21 68 12 55 56 
24 1 40 40 52 48 2 14 18 
27 15 47 47 15 36 43 24 40 
24 9 1 65 24 43 24 65 22 
22 9 24 8 9 22 9 8 4 
15 14 6 15 6 36 58 74 93 
6 41 36 19 22 44 5 22 19 
74 81 93 32 5 19 5 26 8 
90 30 46 30 90 38 46 33 37 
17 4 13 14 3 6 3 17 6 
3 4 17 3 14 2 3 1 4 
2 1 3 10 2 7 1 2 10 
0 21 12 12 21 55 54 0 28 
0 54 21 21 54 11 143 131 144 
188 116 133 116 123 133 155 143 144 
147 135 148 142 164 161 44 66 69 
123 127 133 68 194 127 129 151 248 
194 117 150 132 122 233 117 132 250 
139 158 137 158 139 153 158 153 152 
153 140 152 140 153 145 162 140 169 
118 109 114 113 109 118 109 98 114 
117 122 132 126 77 116 106 75 84 
106 53 75 53 41 75 32 44 77 
19 44 32 77 83 116 77 44 83 
53 106 70 59 111 99 36 53 70 
96 79 101 92 79 96 224 173 193 
219 188 163 202 218 206 232 228 238 
239 247 238 247 239 244 224 226 244 
245 224 244 215 219 231 236 232 238 
236 238 247 226 247 244 226 237 247 
193 226 224 215 218 219 232 215 231 
215 232 236 193 200 226 200 237 226 
218 215 229 229 215 236 237 236 247 
236 225 229 237 185 236 185 225 236 
213 206 229 206 218 229 225 213 229 
185 181 225 180 202 206 213 180 206 
225 183 213 249 250 251 150 250 249 
248 211 249 251 248 249 132 233 251 
251 233 248 65 43 99 65 99 66 
44 65 66 44 69 83 83 69 123 
101 79 80 51 79 92 52 51 62 
51 92 62 62 43 48 59 43 62 
69 66 56 69 55 123 102 71 70 
47 70 71 47 36 70 80 93 102 
58 80 79 79 51 58 48 52 62 
43 40 48 123 55 68 41 16 75 
36 41 53 62 39 59 22 65 44 
55 69 56 58 93 80 160 56 134 
47 71 76 93 105 102 51 63 58 
63 51 52 0 160 151 35 47 76 
58 63 74 129 0 151 11 122 117 
104 76 71 35 76 104 74 82 81 
54 28 122 112 35 104 72 35 112 
74 73 82 63 73 74 23 73 63 
45 35 72 45 29 35 73 38 82 
73 42 38 72 112 95 45 72 95 
45 95 61 100 81 107 14 15 25 
18 14 25 10 63 52 1 10 52 
40 1 52 0 12 160 12 56 160 
21 117 68 10 23 63 28 0 129 
122 11 54 80 102 101 70 106 102 
116 83 123 96 84 94 84 96 101 
103 121 124 122 28 233 233 28 129 
68 117 194 123 68 127 56 66 134 
102 106 101 147 66 99 66 147 134 
147 99 135 106 84 101 99 111 135 
111 138 135 96 94 108 138 111 115 
115 124 125 64 126 119 120 64 119 
87 64 120 98 87 154 121 103 113 
21 11 117 29 27 35 29 15 27 
29 25 15 30 18 25 30 7 18 
42 7 30 23 42 73 10 42 23 
10 7 42 29 33 25 30 25 33 
61 29 45 33 29 89 30 33 46 
42 30 38 37 33 89 7 2 18 
161 172 158 168 186 175 165 168 175 
187 186 208 175 186 187 233 129 248 
137 195 217 158 195 137 168 166 176 
174 168 176 168 174 186 208 174 240 
186 174 208 139 137 159 159 137 217 
156 170 152 156 176 166 198 159 201 
162 156 152 152 140 162 204 176 212 
174 176 204 153 159 198 145 153 198 
176 156 212 117 250 150 153 139 159 
212 162 210 156 162 212 145 198 201 
182 145 201 207 182 201 169 182 189 
169 140 182 189 182 207 50 60 34 
85 20 57 20 85 49 95 97 110 
84 75 94 50 91 94 91 50 115 
75 60 94 64 77 126 57 77 64 
115 50 124 60 50 94 49 103 50 
50 103 124 57 64 87 85 57 87 
49 85 67 49 67 103 103 67 109 
67 85 87 109 67 98 98 67 87 
103 109 113 110 107 78 88 95 110 
100 107 110 97 95 112 104 110 97 
104 97 112 104 71 105 162 169 189 
162 189 210 118 114 130 130 114 128 
114 98 128 98 154 128 113 130 157 
121 113 157 113 118 130 154 87 120 
124 157 181 125 124 136 119 126 167 
131 146 149 125 136 141 138 125 141 
167 116 188 167 126 116 144 131 179 
164 144 179 140 145 182 124 121 157 
138 115 125 163 148 199 147 148 163 
147 163 191 197 134 191 134 147 191 
184 191 163 164 173 172 155 144 165 
155 178 192 178 177 192 148 178 199 
177 178 148 197 191 184 163 133 184 
133 127 184 144 142 165 171 155 165 
178 155 171 178 171 190 184 205 235 
197 184 235 184 194 205 184 127 194 
195 172 214 165 142 170 165 175 187 
171 165 187 171 187 190 134 197 211 
160 134 211 158 172 195 170 142 161 
161 164 172 234 243 227 223 227 243 
190 187 223 211 151 160 195 203 217 
246 209 242 89 29 61 5 32 26 
6 17 41 31 26 32 13 4 8 
41 17 16 31 32 57 31 20 26 
13 8 26 13 26 20 17 13 16 
16 60 75 57 32 77 20 31 57 
16 13 34 16 34 60 34 13 20 
34 20 49 50 34 49 46 37 78 
37 89 78 89 110 78 89 61 88 
46 78 90 90 78 107 89 88 110 
88 61 95 38 90 82 82 90 107 
82 107 81 223 187 227 187 208 227 
241 220 246 222 241 234 230 234 227 
222 234 230 208 240 227 250 132 251 
222 220 241 240 230 227 240 204 230 
217 209 201 204 222 230 248 151 211 
174 204 240 201 159 217 207 201 209 
216 207 209 216 209 220 222 212 220 
204 212 222 189 207 216 220 210 216 
210 189 216 212 210 220 130 128 196 
196 128 213 130 196 183 154 180 213 
157 130 183 196 213 183 180 154 120 
181 183 225 157 183 181 120 202 180 
120 119 202 149 181 185 136 124 181 
149 136 181 149 146 136 119 167 202 
200 185 237 200 149 185 131 149 200 
202 167 218 179 200 193 179 131 200 
167 219 218 173 179 193 173 164 179 
188 219 167 133 163 188 177 135 192 
214 173 224 172 173 214 128 154 213 
135 138 192 214 224 203 203 224 245 
195 214 203 211 235 249 217 203 242 
209 217 242 197 235 211 194 150 205 
235 205 150 235 150 249 199 190 221 
221 190 223 223 243 221 239 243 234 
203 245 242 242 245 246 238 221 243 
239 238 243 239 234 244 234 241 244 
245 244 241 245 241 246 199 221 231 
231 221 228 238 228 221 219 163 199 
219 199 231 231 228 232 71 102 105 
105 100 104 104 100 110 178 190 199 
220 209 246 43 59 99 148 135 177 
93 100 105 143 155 192 146 143 141 
131 143 146 138 141 192 146 141 136 
141 143 192 86 39 96 59 91 111 
111 91 115 59 39 91 94 91 86 
91 39 86 39 92 96 94 86 108 
86 96 108 39 62 92 164 142 144 
161 158 152 161 152 170 170 166 165 
170 156 166 166 168 165 
POINT_DATA 252
SCALARS k float
LOOKUP_TABLE default
1.25379 -0.254186 0.00156111 0.00199449 -0.0026477 0.118694 0.063657 -0.000751019 -0.0328925 
-0.0362681 0.00624344 0.0845622 -0.105582 0.0714711 -0.00250971 0.00362229 -0.0674423 0.0295981 
0.00216424 0.0180296 -0.00589317 0.547546 0.257751 0.864386 -0.0409312 0.00122094 -0.0775622 
0.0182438 0.650742 0.00102782 -0.00270283 0.0331119 -0.0477614 0.00782436 -0.175958 -0.289355 
0.0432592 0.758704 0.245091 0.232833 0.144934 0.304591 0.179175 -0.299643 -0.537293 
-0.162379 -0.087445 -0.144682 0.0453712 -0.218708 -2.18573 0.000434399 -0.674174 0.499442 
1.19854 -0.0738399 -0.7877 0.0960994 0.00751454 0.0747803 -0.216494 0.894922 -0.00919867 
-0.395038 0.190128 -0.0730139 -2.59558 -0.156209 0.257243 -0.365894 -0.0556295 -0.133531 
1.83588 0.276178 0.00143504 0.0369159 0.451178 -0.0262173 0.345739 0.0118173 -0.00237894 
-0.000814319 0.0252987 0.167054 -0.0276415 0.329777 -0.0623312 0.0733633 2.45338 -0.89643 
0.118724 -0.18948 -0.103848 -0.00660387 -0.52149 -1.01679 -0.216049 -0.0389113 0.182091 
-0.0909534 0.000539243 -0.00709975 -0.0112947 -0.251604 -0.396681 -0.01201 0.19241 0.0875601 
0.773538 0.373662 -0.356403 -0.0614793 1.56741 0.778858 0.524269 -0.0691357 -0.062064 
0.0709266 1.37821 0.188864 0.257143 -0.045179 0.196321 0.398143 -0.307165 0.0306994 
0.130368 0.0565335 0.581077 0.041187 1.05099 0.0476208 0.196557 0.511651 -0.309032 
0.00365293 -0.705043 0.108688 -0.157333 2.51803 -0.0370413 -0.185944 0.0130535 0.054135 
-0.0302362 2.0115 -0.0047946 -1.84349 -0.55904 -0.0616444 0.0927439 0.0182251 -0.00366411 
-0.769202 -0.123907 -0.0967784 -0.108303 -0.0839229 -0.0536519 1.19687 -0.0509953 -0.0392141 
0.305756 -0.818705 0.100457 0.00663957 -0.00998199 0.148811 0.00577354 0.542449 0.00605792 
-0.0142419 -0.140078 0.487254 0.207456 0.00605536 -0.0462202 -0.0400034 -0.0626495 0.016028 
0.274162 -1.8115 -0.349663 -0.102054 -0.403048 -0.332858 -0.00162911 -0.760736 -0.123425 
0.394745 -0.0287126 -0.190125 0.248403 0.237789 0.263766 -0.156212 0.142768 -0.464979 
-0.606218 0.0648268 -0.195012 0.113838 0.112209 0.0186996 0.519968 0.330211 0.107617 
-0.0812695 0.636356 -0.00411713 0.368682 -0.0872213 -0.344884 -0.0583091 -0.0336847 0.0242662 
0.0311605 -0.0239875 -0.0343705 -0.0255736 -0.0366534 -0.0871886 0.108507 -0.160257 0.265619 
-0.0910005 0.137044 -0.0766504 0.0204221 0.0521326 -0.0229425 0.0304828 -0.0228331 0.726993 
-0.00200641 -0.29052 -0.08722 -0.0585022 0.0015685 -0.00538433 0.127395 -0.00238729 0.0223653 
0.0115572 0.0498073 0.016593 0.00704098 -0.0334545 0.492606 0.469733 0.101052 1.87911 

FIELD FieldData 7
h 1 252 float
-1.74063 0.641686 0.592602 0.604194 0.563376 0.962898 0.668404 0.665386 0.677424 
0.614626 0.547036 0.419982 0.799731 0.838374 0.554523 0.496622 0.941706 0.59938 
0.431021 1.00747 0.568706 3.78857 0.790288 14.0415 2.03454 0.340436 0.770238 
0.653206 0.252469 0.600079 0.602778 0.655008 0.663266 0.626463 1.21757 0.698082 
1.25381 0.657723 26.6021 -1.19692 -0.373835 0.705527 0.976358 -0.640594 0.241398 
0.475496 0.801866 4.88944 -0.519454 0.07176 -0.903688 -0.452043 0.260687 -0.0729239 
0.588657 -0.083293 -0.411975 0.638402 -0.0572045 -1.71392 1.72605 0.525103 -0.953307 
0.113962 3.54428 -0.629106 -1.02697 -0.126499 7.02906 -0.802385 0.639931 0.387166 
0.589713 -0.0363064 0.190315 -0.238884 8.15681 0.855778 0.76242 -0.266768 0.114204 
0.147038 0.12983 0.657673 -0.146821 0.280623 -0.784812 3.17496 0.12884 0.875386 
11.1994 -1.38806 -0.457034 0.168984 -0.580509 2.0375 -0.418612 0.238296 1.50051 
-4.28526 0.1295 -0.151613 0.277191 -0.312341 0.231327 0.213806 -0.143707 0.201986 
-0.0835902 -0.422657 0.244858 -3.77855 0.170681 0.296264 7.81735 -2.27827 12.0303 
3.38217 0.143427 13.3133 8.56014 -0.663918 -0.661609 5.30655 -5.71599 -2.84704 
5.97065 8.79691 0.346525 -1.04076 -0.87444 -0.044353 -0.14437 4.63762 -6.43777 
-2.78954 -1.08183 2.42666 -1.96557 0.173666 0.202644 -1.00492 0.238954 -0.442892 
-0.0932839 0.57032 -0.478168 -3.99414 1.77546 -0.0953425 3.34362 -1.08428 0.185175 
0.192227 6.67692 -0.758485 0.140552 -2.9169 0.33469 0.607959 -2.1872 0.306043 
0.15782 -0.25115 -0.00369037 -0.375371 0.208 1.67322 0.255864 0.377156 -0.0366329 
-0.69393 0.389526 1.71492 0.122158 0.155819 0.154315 -1.19287 -0.652687 -0.044217 
1.72994 0.625275 7.04325 -0.668845 -0.202975 1.80252 0.130914 -0.12447 0.408896 
1.02002 1.11522 -0.0619311 -1.31587 3.69772 7.31015 5.67782 -0.41157 -0.124877 
29.3124 1.06459 1.21342 0.494711 2.11209 1.24296 2.99006 3.99921 0.59355 
0.524739 1.78143 0.543429 0.712119 0.274084 4.52344 0.23402 15.5894 0.489812 
0.599035 0.722835 0.397445 0.359823 0.496023 0.482665 0.387574 0.477741 1.4041 
0.622714 0.859246 0.536201 0.418049 0.658806 0.411842 0.693627 0.512387 0.20328 
0.437211 -1.8024 0.633865 0.799943 0.401403 0.498165 1.41627 0.344017 0.774707 
0.492056 0.654932 0.592223 0.494002 0.572354 -1.44301 -0.993747 0.660477 0.410539 

kmin 1 252 float
-1.53413 0.812134 0.870962 0.867854 0.719248 1.0436 0.948641 1.00526 0.861096 
0.689615 0.706629 2.25023 2.17909 1.22785 0.840493 0.725981 1.31647 0.754109 
0.670119 1.06924 1.01122 5.68886 0.937764 28.1376 3.46708 0.537418 0.885492 
1.04161 0.860447 0.98033 0.978831 0.875811 1.00151 1.04803 2.20701 1.20215 
2.21544 1.21269 52.4755 -0.368782 -0.205221 0.967281 1.58435 -0.319582 0.789525 
0.848466 1.36947 9.39116 -0.153559 0.872233 1.18376 -0.317193 0.978588 -0.000117565 
1.4359 0.656022 1.4295 1.20439 0.0736663 -1.13686 3.24829 0.938763 -0.468512 
0.287056 5.3244 -0.0723379 0.173994 0.416519 11.2892 -0.589964 1.24061 0.769857 
1.04918 0.0513113 0.407132 -0.0683711 16.9347 1.30431 1.44179 -0.117716 0.32973 
0.325939 0.332768 0.825107 0.129133 0.830297 -0.328608 4.09216 0.292731 1.59346 
21.6419 -1.14979 -0.414795 0.391757 -0.496228 4.27031 -0.303707 0.534339 3.0052 
-0.357865 0.296061 -0.00805872 0.515075 0.536079 0.462774 0.418887 0.0335921 0.517716 
0.128151 0.219035 0.578878 0.0386859 0.453059 0.732055 12.5213 -0.0549362 22.8639 
5.17736 0.841322 25.056 16.1818 0.744824 -0.121148 7.8959 0.549242 -0.339571 
10.0164 15.4755 0.844027 0.210189 -0.268321 0.276802 0.337872 7.07122 -1.76887 
-0.610577 -0.540817 4.69997 -1.18208 0.50972 0.524314 -0.666974 0.481938 -0.334507 
-0.0443317 1.04578 -0.392135 -0.245384 4.18231 0.350289 4.84186 1.84474 0.468129 
0.483409 11.038 -0.325198 0.398233 0.275116 0.685652 0.994475 -0.772162 0.66724 
0.367589 0.256626 0.102025 -0.276942 0.519414 2.2105 0.578449 0.785313 0.112601 
-0.394592 0.811569 3.44522 0.281032 0.443521 0.34218 -0.722021 -0.437378 0.175547 
1.88852 1.25201 13.2958 0.24223 0.148567 3.29177 0.331157 -0.00213682 0.672193 
1.55101 1.88541 1.12375 -0.551225 7.80949 12.9352 11.1059 0.0934214 2.25525 
57.6639 1.70348 2.54654 0.823237 2.7404 2.10246 5.37559 5.55148 1.04456 
0.809483 3.76874 0.820256 1.10858 1.35538 8.46802 0.744992 28.5381 0.712535 
0.921357 1.15468 0.94883 0.665807 0.736431 0.599402 0.519568 0.667183 2.41537 
1.49967 1.34789 0.767156 0.558698 1.11824 0.565993 0.861643 0.646706 0.757732 
0.643017 -1.33714 0.929306 1.19945 0.498833 0.779801 2.34006 0.504433 1.19789 
0.640789 0.980111 0.889512 0.736884 0.800596 -0.56587 -0.538863 1.56427 1.46798 

kmax 1 252 float
-1.94713 0.471239 0.314241 0.340534 0.407503 0.882194 0.388168 0.325507 0.493751 
0.539637 0.387444 -1.41027 -0.579628 0.4489 0.268554 0.267263 0.566942 0.44465 
0.191924 0.945697 0.126194 1.88828 0.642813 -0.05461 0.602003 0.143454 0.654984 
0.2648 -0.355509 0.219827 0.226725 0.434205 0.325026 0.204899 0.228125 0.194019 
0.292182 0.102761 0.728741 -2.02506 -0.542449 0.443773 0.368366 -0.961607 -0.306729 
0.102527 0.234267 0.387718 -0.885349 -0.728713 -2.99113 -0.586892 -0.457214 -0.14573 
-0.258589 -0.822608 -2.25345 0.0724126 -0.188075 -2.29099 0.203817 0.111443 -1.4381 
-0.0591309 1.76415 -1.18587 -2.22792 -0.669517 2.76893 -1.01481 0.0392535 0.00447533 
0.130244 -0.123924 -0.0265028 -0.409397 -0.621032 0.407252 0.0830514 -0.415819 -0.101323 
-0.0318631 -0.0731081 0.490239 -0.422776 -0.269051 -1.24102 2.25776 -0.0350511 0.15731 
0.756896 -1.62633 -0.499274 -0.0537887 -0.664791 -0.195303 -0.533517 -0.0577475 -0.0041905 
-8.21265 -0.0370611 -0.295167 0.0393067 -1.16076 -0.000119297 0.00872632 -0.321007 -0.113744 
-0.295332 -1.06435 -0.0891625 -7.59579 -0.111696 -0.139527 3.11336 -4.5016 1.19665 
1.58699 -0.554468 1.57071 0.93852 -2.07266 -1.20207 2.7172 -11.9812 -5.35451 
1.92493 2.11828 -0.150976 -2.2917 -1.48056 -0.365508 -0.626613 2.20403 -11.1067 
-4.9685 -1.62284 0.153343 -2.74905 -0.162387 -0.119027 -1.34286 -0.00402982 -0.551278 
-0.142236 0.0948621 -0.564201 -7.7429 -0.631399 -0.540974 1.84539 -4.0133 -0.0977785 
-0.0989551 2.31587 -1.19177 -0.117128 -6.10891 -0.0162713 0.221443 -3.60223 -0.0551546 
-0.0519485 -0.758925 -0.109406 -0.473799 -0.103413 1.13595 -0.066721 -0.0310004 -0.185867 
-0.993267 -0.032517 -0.015388 -0.0367166 -0.131884 -0.0335503 -1.66373 -0.867995 -0.263981 
1.57135 -0.00145695 0.790703 -1.57992 -0.554518 0.313268 -0.069329 -0.246804 0.1456 
0.489028 0.345028 -1.24761 -2.08051 -0.414057 1.68515 0.24971 -0.916562 -2.505 
0.960941 0.425706 -0.119703 0.166185 1.48377 0.383455 0.604542 2.44694 0.142544 
0.239995 -0.205887 0.266602 0.315655 -0.807213 0.57885 -0.276951 2.64073 0.26709 
0.276714 0.290989 -0.15394 0.05384 0.255615 0.365927 0.25558 0.2883 0.392829 
-0.25424 0.370605 0.305247 0.2774 0.199373 0.257692 0.525611 0.378067 -0.351172 
0.231405 -2.26767 0.338423 0.400431 0.303973 0.216529 0.492489 0.183601 0.351528 
0.343324 0.329754 0.294933 0.25112 0.344111 -2.32015 -1.44863 -0.243312 -0.646897 

hks 16 252 double
0.36337500244 0.36994839536 0.37671265272 0.38367319807 0.39083458805 0.39820026445 0.40577230048 0.41355114575 0.42153537476 
0.42972144393 0.43810346207 0.44667297903 0.45541879748 0.46432681217 0.47337988111 0.48255773254 0.18726926987 0.18674524531 
0.18618649648 0.18559025783 0.18495412116 0.1842760652 0.18355447912 0.1827881799 0.18197642398 0.18111891351 0.18021579787 
0.1792676711 0.17827556589 0.1772409452 0.17616569235 0.17505210063 0.26636603771 0.26530787318 0.26424051983 0.26315923817 
0.26205992226 0.26093915789 0.25979426649 0.25862333683 0.25742524729 0.25619968123 0.25494713836 0.25366894415 0.25236725924 
0.25104508956 0.24970629728 0.24835561176 0.25725133251 0.25591082407 0.25459610312 0.2532985004 0.25200928455 0.25071986219 
0.24942196804 0.24810784039 0.2467703785 0.24540327917 0.24400115107 0.24255960621 0.24107532888 0.23954612314 0.23797094032 
0.23634988873 0.32500647673 0.32249684876 0.31990353722 0.31722938253 0.31447640222 0.31164579333 0.30873796253 0.30575258155 
0.30268866516 0.29954466816 0.2963185982 0.29300814096 0.2896107945 0.28612401008 0.28254533694 0.27887256907 0.29923632256 
0.29778419862 0.29616269914 0.29437119337 0.29240947374 0.2902777205 0.28797647117 0.2855065963 0.28286928291 0.28006602642 
0.27709863163 0.27396922281 0.27068026267 0.26723457948 0.26363540158 0.25988639775 0.23664870753 0.23542128802 0.23417191184 
0.23289779353 0.23159750568 0.23027097707 0.2289194605 0.22754547445 0.22615272389 0.22474600528 0.22333110092 0.22191466727 
0.220504121 0.21910752595 0.21773348291 0.21639102352 0.29389056745 0.29265137933 0.29139608176 0.29012339118 0.28883294161 
0.28752526659 0.28620177323 0.28486471293 0.28351715274 0.28216295041 0.28080673541 0.27945389684 0.27811057772 0.27678367446 
0.2754808384 0.27421047609 0.29915943077 0.2985739381 0.29788603731 0.29708084623 0.29614398739 0.29506175351 0.29382125621 
0.29241055689 0.29081877951 0.28903620578 0.28705435387 0.28486604251 0.28246544242 0.27984811727 0.27701105644 0.27395270161 
0.26834630262 0.26609248409 0.26383242449 0.26155630068 0.25925460557 0.25691827453 0.25453878851 0.25210825302 0.24961945427 
0.24706589431 0.24444180858 0.2417421697 0.23896268195 0.23609977125 0.23315057489 0.23011293539 0.20316362928 0.20281729732 
0.20242925445 0.20200134666 0.20153591383 0.20103580262 0.2005043787 0.19994553838 0.19936371997 0.19876391443 0.19815167502 
0.19753312517 0.19691496338 0.19630446375 0.19570947041 0.19513838388 0.39828346139 0.40488239847 0.411802028 0.41904104013 
0.42659635178 0.43446294956 0.44263373745 0.45109939301 0.45984823598 0.46886611276 0.4781363002 0.48763943135 0.4973534454 
0.50725356345 0.51731229102 0.52749944778 0.30834446497 0.31082562489 0.31354621135 0.31651779137 0.31975101715 0.3232553256 
0.32703862847 0.33110700056 0.33546437419 0.3401122482 0.3450494195 0.35027174505 0.35577194113 0.36153942593 0.36756021041 
0.37381684088 0.25120021261 0.24995985516 0.24871814924 0.24746780758 0.24620077636 0.24490836575 0.24358139284 0.24221033329 
0.2407854778 0.23929709003 0.23773556257 0.23609156826 0.23435620451 0.23252112881 0.23057868414 0.22852201354 0.29788343829 
0.29664757644 0.29543753982 0.29425074023 0.29308417319 0.29193458276 0.29079863471 0.28967309195 0.28855498705 0.28744178651 
0.28633154275 0.2852230298 0.28411586014 0.28301058042 0.28190874482 0.2808129651 0.25597282252 0.25516633222 0.2544573843 
0.25384964398 0.2533460677 0.25294893646 0.2526599052 0.25248006633 0.2524100255 0.25244998679 0.25259984495 0.25285928147 
0.2532278616 0.25370512898 0.25429069476 0.25498431796 0.17812483336 0.17709494881 0.17601117593 0.17487635338 0.17369363152 
0.17246641452 0.17119830074 0.16989302322 0.16855439148 0.16718623622 0.16579235791 0.16437648044 0.16294221066 0.16149300465 
0.16003214131 0.15856270389 0.28549594617 0.28247521405 0.27941659383 0.27632256866 0.27319541962 0.27003728813 0.26685024361 
0.26363635284 0.2603977475 0.25713668696 0.25385561363 0.25055719924 0.24724438079 0.24392038573 0.24058874703 0.23725330872 
0.34236403084 0.34096551387 0.33958738696 0.33822302808 0.33686585474 0.33550955949 0.33414833951 0.33277711385 0.33139172253 
0.32998910269 0.3285674381 0.32712627928 0.32566663255 0.3241910173 0.3227034915 0.32120964605 0.27499283242 0.27190754325 
0.26878973904 0.26563750171 0.26244893721 0.25922221788 0.2559556202 0.25264755807 0.2492966125 0.24590155862 0.2424613912 
0.23897534993 0.23544294542 0.23186398672 0.22823861082 0.2245673139 0.23150079157 0.23031474916 0.22907705241 0.2277892139 
0.22645276675 0.22506917436 0.22363974173 0.22216553129 0.22064728572 0.21908535997 0.21747966444 0.2158296207 0.21413413098 
0.21239156215 0.21059974476 0.20875598736 0.30688374974 0.31331078102 0.32000049038 0.32695465132 0.3341732864 0.34165446034 
0.34939409264 0.35738579494 0.36562073749 0.37408754769 0.38277224312 0.3916581994 0.40072615273 0.40995423559 0.41931804289 
0.42879072594 0.22248444827 0.22130380023 0.22001436337 0.21861744246 0.21711446703 0.21550694667 0.21379643359 0.21198449377 
0.21007268766 0.20806256101 0.20595564618 0.20375347375 0.20145759422 0.19906960909 0.19659121041 0.19402422775 0.2255079709 
0.22486367251 0.22421422208 0.22356225734 0.22291076426 0.22226308136 0.2216229093 0.22099432631 0.22038180958 0.21979026193 