# vtk DataFile Version 5.1
vtk output
ASCII
DATASET POLYDATA
POINTS 252 float
0.900332 0.098883 -0.020754 0.87405 0.090381 0.035222 0.867941 0.016303 0.007346 
0.837891 0.116383 -0.049069 0.817451 0.062261 -0.053239 0.797575 0.035675 -0.0249 
0.768316 0.047836 0.020755 0.81943 0.136997 0.020061 0.769145 0.180263 -0.079214 
0.754376 0.105815 0.045432 0.711706 0.182221 -0.11639 0.772427 0.056753 -0.084911 
0.679439 0.014788 -0.036406 0.744028 0.194211 0.027842 0.669896 0.211154 0.019166 
0.650883 0.058861 -0.102452 0.633309 0.001713 0.008414 0.65029 0.139334 0.029711 
0.68931 0.250689 -0.045963 0.545603 -0.100241 -0.007894 0.585262 -0.041702 0.051209 
0.612149 -0.03222 -0.037045 0.613376 0.210354 -0.0879 0.608676 0.081776 -0.101673 
0.458006 -0.08706 -0.063841 0.50525 0.012409 -0.075245 0.564579 0.134975 0.016862 
0.587935 0.218829 -0.037955 0.616624 0.048447 0.031922 0.525994 0.035583 0.061241 
0.478802 -0.044495 0.087624 0.383051 -0.136871 -0.063259 0.549191 0.12243 -0.101337 
0.45111 -0.14138 -0.010189 0.473044 0.123544 0.015444 0.446029 0.141621 -0.031497 
0.425903 -0.137875 0.060669 0.349829 0.114884 0.043259 0.376123 -0.018978 -0.073154 
0.330206 -0.174865 -0.013169 0.348594 -0.149384 0.053336 0.292254 -0.204271 0.071809 
0.311169 -0.111123 -0.097053 0.35603 -0.081107 0.106804 0.365143 -0.00076 0.100922 
0.326206 0.095484 -0.018527 0.279686 -0.182774 -0.042129 0.248026 -0.201075 0.119526 
0.320118 0.030262 0.138872 0.310176 -0.040213 -0.106733 0.250254 -0.215631 -0.02523 
0.299611 0.104886 0.096513 0.208401 -0.250649 0.081699 0.237819 -0.163417 -0.136268 
0.262761 -0.010799 0.158423 0.121092 -0.223947 -0.022106 0.235218 -0.082307 0.169222 
0.294275 0.07644 -0.069687 0.224248 -0.048664 -0.133107 0.170436 -0.178463 0.153122 
0.164179 -0.268647 0.049528 0.161456 0.101408 -0.059882 0.270194 0.141731 0.030346 
0.274798 0.134421 -0.003902 0.191304 0.038567 0.17952 0.244566 0.132412 0.110191 
0.064675 -0.221363 -0.158112 0.095587 -0.234738 0.12302 0.12301 -0.243594 -0.099644 
0.167488 -0.201916 -0.128022 0.095758 -0.203901 0.025537 0.136508 -0.287866 0.100133 
0.091209 -0.311539 0.05317 0.152055 -0.081137 -0.142346 0.063514 -0.164053 -0.050461 
0.030599 -0.350228 0.08395 0.15078 -0.099765 0.163548 0.023239 -0.27292 0.050569 
0.071383 -0.253429 0.030696 0.085752 -0.199105 0.11016 0.085926 -0.05384 0.206311 
0.004809 -0.323953 0.100384 -0.004078 -0.37894 0.053716 0.051059 0.066279 0.202746 
0.122838 0.165045 0.037382 0.143372 0.047716 -0.094467 0.104694 0.11047 0.179381 
0.101532 -0.019607 -0.099283 0.05926 -0.168806 0.077555 -0.00522 -0.302235 0.088569 
-0.054213 -0.378908 0.042275 0.039501 -0.155498 0.139174 -0.04024 -0.012178 0.226257 
0.010937 0.022038 -0.127703 0.101215 0.157989 0.101902 -0.019708 -0.321256 0.040704 
0.085903 -0.100898 -0.091705 0.029337 -0.217795 -0.070377 -0.016333 -0.245011 -0.14278 
0.0413 -0.134991 -0.060213 -0.066474 -0.398044 0.088469 -0.033193 -0.181262 -0.134439 
0.077182 -0.158401 -0.127214 -0.0861 -0.09887 0.181898 0.1393 0.139203 -0.025579 
-0.167416 -0.388637 0.092535 -0.058879 -0.331801 0.070503 -0.059921 -0.218929 -0.118441 
-0.01551 0.123473 0.184824 -0.072356 -0.216503 -0.194826 -0.124536 -0.382075 0.092311 
-0.000229 0.127992 -0.080469 -0.044772 -0.077948 -0.109349 -0.118563 -0.203302 -0.166549 
-0.104374 -0.136549 0.092883 -0.102559 -0.117484 -0.041154 -0.078133 -0.263887 -0.161264 
-0.069721 -0.009263 -0.144204 -0.184138 -0.471776 0.098429 -0.014476 0.184002 0.003191 
0.010278 0.160052 0.12619 -0.14236 -0.231178 -0.156462 -0.105257 0.183275 0.120869 
-0.171316 -0.377807 -0.075956 -0.235422 -0.488911 0.115716 -0.143532 -0.233658 -0.098618 
-0.212006 -0.465003 0.058948 -0.149315 0.064046 -0.141696 -0.234795 -0.359956 -0.067364 
-0.225319 -0.363581 -0.133217 -0.220208 -0.42836 -0.082525 -0.191661 -0.094498 0.043749 
-0.079975 0.106485 -0.136565 -0.254501 -0.461255 0.091226 -0.13121 -0.039443 -0.122077 
-0.185367 -0.21326 -0.097633 -0.247594 -0.247065 -0.051008 -0.266838 -0.390283 0.081995 
-0.226261 -0.214594 -0.035285 -0.28009 -0.416247 0.021701 -0.266494 -0.380743 -0.102006 
-0.249571 -0.368602 -0.165733 -0.176188 -0.057869 0.168327 -0.215973 -0.235022 -0.107752 
-0.286043 -0.307849 -0.165841 -0.286668 -0.380546 -0.163192 -0.185329 -0.019675 -0.142986 
-0.251317 -0.344565 0.054257 -0.159569 0.22927 -0.047839 -0.222778 0.017192 -0.180345 
-0.144764 0.141283 0.171776 -0.200824 -0.085706 -0.156074 -0.215214 -0.073292 -0.096977 
-0.118185 0.033672 0.221117 -0.243843 -0.255549 -0.08916 -0.323887 -0.336395 0.091811 
-0.245452 -0.09767 -0.214429 -0.212248 0.040634 0.166342 -0.309379 -0.33156 -0.178341 
-0.193426 -0.079168 -0.043538 -0.308096 -0.365227 0.0345 -0.321472 -0.230045 -0.214382 
-0.329521 -0.3827 0.06067 -0.271384 -0.175993 -0.064182 -0.317913 -0.232686 -0.25498 
-0.219229 -0.068266 0.116757 -0.092873 0.162653 -0.100113 -0.27844 -0.046952 -0.216751 
-0.284536 -0.040376 0.147483 -0.364934 -0.252499 -0.258011 -0.363719 -0.382216 0.092636 
-0.341349 -0.184247 -0.210134 -0.316917 -0.191921 -0.25738 -0.257436 0.112646 -0.19137 
-0.290808 -0.158344 -0.184948 -0.18089 0.208082 -0.111445 -0.360306 -0.22799 -0.219716 
-0.312456 -0.098885 0.033688 -0.148914 0.421669 -0.004055 -0.32844 -0.369065 0.109613 
-0.349733 -0.074369 -0.045112 -0.336642 -0.072627 -0.21156 -0.393896 -0.323111 0.09153 
-0.36035 -0.158919 0.095292 -0.352822 -0.162952 -0.240544 -0.333694 0.189055 0.133754 
-0.359235 0.07202 0.167129 -0.298394 -0.131059 0.125681 -0.335727 -0.084423 -0.100985 
-0.17483 0.405037 0.026041 -0.199741 0.435877 -0.0354 -0.272308 0.201534 -0.149791 
-0.337298 0.040909 -0.207697 -0.342779 -0.116842 -0.173138 -0.42055 -0.211537 0.138715 
-0.449237 -0.294132 0.135015 -0.412755 -0.278018 0.126002 -0.21048 0.220508 0.09836 
-0.340273 0.126925 -0.184947 -0.252325 0.507156 -0.010551 -0.399232 -0.112691 0.040249 
-0.468301 -0.258208 0.087641 -0.398191 -0.045119 -0.16461 -0.277654 0.250827 -0.042943 
-0.321703 0.472724 -0.037152 -0.427711 -0.169825 0.152154 -0.230481 0.481114 0.042561 
-0.338859 0.226127 -0.050435 -0.430725 -0.204046 0.099975 -0.407765 0.129127 -0.154588 
-0.477203 -0.283885 0.124469 -0.418641 0.091951 -0.039186 -0.367463 -0.049422 -0.041089 
-0.456259 -0.174105 0.095964 -0.411035 0.047426 -0.159798 -0.471377 -0.24028 0.146805 
-0.350269 0.223453 0.079634 -0.372115 -0.09699 0.155012 -0.312189 0.42542 -0.00134 
-0.350782 0.210693 -0.117931 -0.309588 0.502335 0.079128 -0.43788 -0.112318 0.11927 
-0.387467 0.256606 -0.055472 -0.506964 -0.215618 0.128496 -0.319338 0.141643 0.15861 
-0.424376 0.118627 -0.082359 -0.43381 0.084752 0.111925 -0.387455 0.20511 -0.028336 
-0.303731 0.422119 0.032602 -0.459118 -0.03695 0.106788 -0.398402 0.211802 -0.025842 
-0.432631 -0.00422 0.002362 -0.430622 0.156984 0.070246 -0.383615 0.281292 0.004198 
-0.388844 0.223493 0.017059 -0.391971 0.362939 -0.054256 -0.458142 -0.03869 0.068226 
-0.332958 0.540824 0.015059 -0.327198 0.453065 0.084498 -0.393599 0.46341 -0.066603 
-0.466111 0.104328 0.042089 -0.430363 0.3562 0.04131 -0.440179 0.240033 0.029011 
-0.457671 0.238634 -0.048401 -0.380268 0.501141 0.076316 -0.388152 0.515257 -0.005034 
-0.483665 0.264091 0.009093 -0.458436 0.330802 -0.094909 -0.444796 0.443909 -0.058487 
-0.457268 0.434988 0.055655 -0.508342 0.357549 -0.016521 -0.477028 0.433046 0.007261 

POLYGONS 501 1500
OFFSETS vtktypeint64
0 3 6 9 12 15 18 21 24 
27 30 33 36 39 42 45 48 51 
54 57 60 63 66 69 72 75 78 
81 84 87 90 93 96 99 102 105 
108 111 114 117 120 123 126 129 132 
135 138 141 144 147 150 153 156 159 
162 165 168 171 174 177 180 183 186 
189 192 195 198 201 204 207 210 213 
216 219 222 225 228 231 234 237 240 
243 246 249 252 255 258 261 264 267 
270 273 276 279 282 285 288 291 294 
297 300 303 306 309 312 315 318 321 
324 327 330 333 336 339 342 345 348 
351 354 357 360 363 366 369 372 375 
378 381 384 387 390 393 396 399 402 
405 408 411 414 417 420 423 426 429 
432 435 438 441 444 447 450 453 456 
459 462 465 468 471 474 477 480 483 
486 489 492 495 498 501 504 507 510 
513 516 519 522 525 528 531 534 537 
540 543 546 549 552 555 558 561 564 
567 570 573 576 579 582 585 588 591 
594 597 600 603 606 609 612 615 618 
621 624 627 630 633 636 639 642 645 
648 651 654 657 660 663 666 669 672 
675 678 681 684 687 690 693 696 699 
702 705 708 711 714 717 720 723 726 
729 732 735 738 741 744 747 750 753 
756 759 762 765 768 771 774 777 780 
783 786 789 792 795 798 801 804 807 
810 813 816 819 822 825 828 831 834 
837 840 843 846 849 852 855 858 861 
864 867 870 873 876 879 882 885 888 
891 894 897 900 903 906 909 912 915 
918 921 924 927 930 933 936 939 942 
945 948 951 954 957 960 963 966 969 
972 975 978 981 984 987 990 993 996 
999 1002 1005 1008 1011 1014 1017 1020 1023 
1026 1029 1032 1035 1038 1041 1044 1047 1050 
1053 1056 1059 1062 1065 1068 1071 1074 1077 
1080 1083 1086 1089 1092 1095 1098 1101 1104 
1107 1110 1113 1116 1119 1122 1125 1128 1131 
1134 1137 1140 1143 1146 1149 1152 1155 1158 
1161 1164 1167 1170 1173 1176 1179 1182 1185 
1188 1191 1194 1197 1200 1203 1206 1209 1212 
1215 1218 1221 1224 1227 1230 1233 1236 1239 
1242 1245 1248 1251 1254 1257 1260 1263 1266 
1269 1272 1275 1278 1281 1284 1287 1290 1293 
1296 1299 1302 1305 1308 1311 1314 1317 1320 
1323 1326 1329 1332 1335 1338 1341 1344 1347 
1350 1353 1356 1359 1362 1365 1368 1371 1374 
1377 1380 1383 1386 1389 1392 1395 1398 1401 
1404 1407 1410 1413 1416 1419 1422 1425 1428 
1431 1434 1437 1440 1443 1446 1449 1452 1455 
1458 1461 1464 1467 1470 1473 1476 1479 1482 
1485 1488 1491 1494 1497 1500 
CONNECTIVITY vtktypeint64
190 204 199 239 245 237 164 145 169 
146 156 149 209 192 214 18 22 27 
199 204 239 245 239 248 18 10 22 
172 164 169 184 172 169 169 176 184 
164 174 161 161 171 176 176 171 184 
156 151 174 164 156 174 156 164 172 
156 172 167 181 172 184 181 184 193 
184 171 193 167 172 181 181 193 202 
192 167 181 192 181 202 192 202 214 
149 156 167 149 167 173 167 192 173 
127 149 173 173 192 198 198 192 209 
166 127 173 198 209 219 175 166 173 
175 173 191 191 173 198 92 80 83 
76 64 80 59 56 76 142 153 157 
103 153 142 103 92 153 91 80 103 
80 92 103 91 76 80 47 56 59 
114 91 103 194 205 215 194 217 205 
194 187 217 210 215 223 210 195 215 
196 194 215 196 215 195 179 196 195 
179 155 196 182 195 210 182 170 195 
170 179 195 118 110 105 124 105 133 
118 105 124 128 123 129 141 130 140 
129 130 141 129 123 130 238 244 249 
9 13 17 28 9 17 7 9 6 
1 7 6 6 9 28 2 1 6 
120 119 122 94 119 120 65 62 84 
51 62 65 51 37 62 29 34 37 
20 28 29 16 28 20 197 203 216 
116 154 121 197 122 148 216 234 232 
185 216 232 226 232 240 20 29 30 
207 222 233 148 175 203 49 58 57 
85 87 93 61 85 93 57 58 85 
207 203 219 207 219 227 3 11 8 
127 117 134 93 112 117 93 117 132 
117 127 132 127 146 149 209 214 225 
219 209 227 225 227 209 111 93 132 
166 132 127 203 191 219 191 198 219 
148 166 175 203 175 191 23 25 32 
235 222 247 11 15 10 239 235 247 
239 247 248 248 247 250 10 15 23 
10 23 22 23 32 22 27 22 32 
204 235 239 8 11 10 18 8 10 
119 166 148 119 111 166 166 111 132 
104 61 111 38 45 35 35 25 38 
21 24 25 15 21 25 222 230 243 
247 222 243 222 227 230 222 207 227 
61 93 111 57 85 61 57 38 49 
25 24 38 38 42 49 93 87 96 
85 73 87 49 42 58 38 31 42 
38 24 31 96 112 93 216 207 233 
38 57 45 211 227 225 232 234 240 
234 227 240 227 211 240 24 33 31 
24 19 33 211 231 240 31 33 39 
42 39 46 31 39 42 212 231 211 
188 159 180 97 74 101 97 55 74 
97 68 55 50 55 68 69 50 68 
138 135 163 154 136 163 163 143 154 
125 138 136 138 125 135 154 125 136 
128 144 140 128 129 144 235 228 233 
241 228 238 37 34 35 5 6 12 
114 103 142 153 150 157 82 100 90 
77 95 106 217 226 229 79 76 91 
114 142 165 142 157 165 165 157 168 
186 226 217 47 43 56 168 157 186 
168 186 217 56 43 54 43 44 48 
43 48 54 157 150 186 186 150 224 
54 65 64 64 65 86 83 86 108 
120 122 108 153 108 150 108 122 150 
224 150 185 86 120 108 139 160 147 
155 147 160 106 95 105 95 90 105 
95 82 90 5 2 6 246 249 250 
241 249 246 242 241 246 233 241 242 
197 148 203 122 119 148 84 111 119 
94 84 119 84 63 104 62 63 84 
45 57 63 37 63 62 63 37 45 
37 35 45 12 28 16 234 233 242 
216 233 234 203 207 216 84 104 111 
12 16 21 243 242 246 230 242 243 
230 234 242 227 234 230 21 19 24 
29 26 34 29 28 26 12 6 28 
16 19 21 16 20 19 134 159 146 
96 99 112 87 73 96 42 46 53 
212 211 202 188 152 159 146 159 152 
115 159 134 134 112 115 74 102 101 
96 74 99 96 102 74 96 73 102 
73 69 102 53 50 69 188 180 212 
152 188 174 97 101 107 69 68 66 
135 113 143 125 113 135 125 101 113 
107 101 125 125 116 107 116 98 107 
98 97 107 68 97 98 66 68 98 
143 121 154 113 121 143 116 125 154 
112 99 115 53 46 50 135 143 163 
19 36 33 19 20 36 36 40 39 
39 33 36 231 236 240 63 61 104 
4 2 5 0 2 4 189 178 206 
244 237 245 11 5 12 11 12 15 
15 12 21 23 15 25 32 25 35 
63 57 61 233 222 235 247 243 250 
243 246 250 4 5 11 218 228 235 
248 250 251 0 4 3 3 4 11 
27 32 35 27 35 26 26 35 34 
190 189 218 218 189 228 218 235 204 
245 248 251 0 3 7 7 3 8 
13 7 8 8 18 13 190 178 189 
178 190 199 204 190 218 39 40 46 
212 200 231 131 177 159 159 115 131 
99 88 115 74 88 99 74 70 88 
74 55 70 41 50 46 180 200 212 
200 180 177 180 159 177 55 60 70 
138 163 136 123 128 130 140 130 128 
65 94 86 65 84 94 54 48 65 
48 51 65 185 197 216 150 197 185 
200 236 231 86 94 120 41 43 47 
187 168 217 165 168 187 131 114 165 
88 91 114 88 79 91 70 79 88 
79 59 76 67 59 79 52 47 59 
221 229 236 221 217 229 200 221 236 
67 79 89 71 59 67 52 59 71 
200 213 221 200 208 213 183 208 200 
208 183 194 183 187 194 81 67 89 
71 67 81 72 52 71 221 213 223 
213 201 223 208 201 213 194 201 208 
81 89 106 89 77 106 72 75 82 
71 81 75 72 71 75 210 223 201 
201 155 182 182 210 201 155 201 196 
75 81 100 160 182 155 205 217 221 
215 205 221 215 221 223 194 196 201 
106 105 110 14 13 18 14 18 27 
69 66 102 188 212 202 151 146 152 
58 42 53 206 178 199 237 206 199 
199 239 237 141 145 164 145 158 169 
169 158 176 158 144 176 144 164 161 
144 161 176 109 116 121 161 174 171 
66 98 109 109 98 116 101 109 113 
113 109 121 151 152 174 171 174 193 
193 174 188 193 188 202 102 66 109 
102 109 101 146 151 156 53 69 73 
53 73 58 117 112 134 127 134 146 
202 211 214 214 211 225 85 58 73 
81 106 110 100 81 110 82 75 100 
182 162 170 160 162 182 162 137 179 
179 147 155 137 147 179 139 147 137 
105 126 133 105 90 126 90 100 126 
162 179 170 160 139 162 137 162 139 
126 100 118 126 124 133 83 108 153 
64 86 83 92 83 153 80 64 83 
56 54 64 76 56 64 118 100 110 
118 124 126 150 122 197 44 51 48 
44 37 51 29 37 44 44 30 29 
43 30 44 36 20 30 185 232 226 
186 224 226 224 185 226 40 36 43 
36 30 43 236 226 240 226 236 229 
46 40 41 40 43 41 165 187 177 
177 131 165 115 114 131 115 88 114 
52 41 47 41 52 50 177 183 200 
177 187 183 79 77 89 70 77 79 
70 78 77 70 60 78 60 72 78 
55 50 60 50 52 60 78 95 77 
78 82 95 72 82 78 52 72 60 
140 144 158 145 140 158 129 141 144 
241 238 249 238 220 244 249 251 250 
228 241 233 2 0 1 28 17 26 
1 0 7 9 7 13 17 13 14 
17 14 26 14 27 26 238 189 206 
189 238 228 249 245 251 244 245 249 
238 206 220 220 206 237 220 237 244 
145 141 140 141 164 144 
POINT_DATA 252
SCALARS k float
LOOKUP_TABLE default
1.93553 1.0889 2.09976 -0.320199 -0.153274 -0.322279 -0.335625 -0.397935 0.197589 
0.240535 0.595738 0.417636 -0.679028 0.393188 0.307151 0.0319831 -0.122836 0.00453174 
0.980637 0.302795 0.446265 -0.173901 0.329264 -0.0296168 0.00280613 -0.244611 -0.211288 
0.0935338 -0.591247 -0.00338936 0.0764411 0.0867242 0.189724 0.0771077 -0.132304 -0.436864 
0.3043 -0.626633 -0.304256 -0.0174797 -0.53628 0.209027 -0.326739 -0.250498 -0.284135 
-0.618677 -0.255146 0.188236 0.339047 0.0677716 -0.0433333 -0.0493408 -0.0732476 0.489293 
-0.0743446 -0.860601 0.127264 0.237803 0.067265 0.0390137 -0.59598 -0.0416439 0.0361049 
0.146078 0.0259264 0.19236 0.100317 -0.0938419 0.181808 -0.234666 -1.47059 0.0929283 
-0.109001 0.0930735 -1.96205 -0.0629045 -0.201724 -0.178858 -0.074397 -1.71369 0.154078 
-0.191926 0.413467 0.0275748 -0.0229795 -0.151543 0.108885 -0.166815 -0.114697 -0.192538 
-0.116325 -0.245992 0.139726 -0.0623362 0.013069 -0.00512087 -0.622066 -0.124487 -0.397643 
-0.40324 -0.280182 -0.319945 -1.07329 0.211044 -0.0101089 0.34235 -0.2493 -0.915858 
0.0505041 0.860147 -0.11692 -0.129145 0.0283799 0.172569 0.142931 0.0984409 0.599517 
0.19747 0.113458 -0.11809 -0.0217335 0.0541723 -0.0386788 3.10694 2.72933 -0.894089 
1.02046 -0.269203 1.09547 -0.260617 2.46004 -0.201741 0.241482 2.15196 -0.236076 
-0.655198 1.34641 1.14301 1.20796 3.13486 -0.0878545 -0.159502 0.180844 -0.232662 
-0.954052 0.935808 -0.891344 2.49691 0.085246 -0.076836 -0.0923109 0.528742 -0.667774 
0.29261 1.01701 -0.720231 -0.0586831 -0.311643 -0.163507 -0.337514 0.260324 -1.6813 
-0.495291 3.55179 -0.370537 -1.14354 -0.159111 -0.0817146 -0.0528477 1.53509 0.911631 
-0.449287 0.172172 0.135514 -0.710796 0.126211 0.132282 -0.288888 2.63781 0.17473 
-0.569579 -0.576435 -0.78016 -0.063857 0.0448999 0.285658 0.175996 0.109663 -0.405305 
1.34395 0.742677 0.258304 0.104683 -0.76983 -1.42804 -0.0994745 -1.28024 0.145353 
0.114974 0.384813 -0.653695 0.0195926 0.420711 0.258358 -0.449771 0.0500624 0.225987 
-1.64934 -0.639548 0.518526 0.801018 -0.442414 -0.246424 -0.40064 0.130123 0.174638 
-0.524636 -0.110902 -0.645153 0.31292 0.52031 -1.12737 -0.833924 1.57294 0.0451165 
0.182344 0.0700659 -1.73712 -0.997769 0.328051 -0.386528 0.0776576 0.177781 -2.42621 
-1.93727 -0.265502 0.0852547 0.781075 0.122894 0.317769 0.525883 -0.21607 0.606857 
0.780573 0.609242 0.264761 0.611356 0.854581 0.323861 0.47504 0.653506 0.253485 

FIELD FieldData 7
h 1 252 float
3.29837 1.82413 8.3596 3.51015 3.37855 7.72833 3.25816 2.29644 8.5581 
2.4133 3.9003 3.94664 4.56505 4.50189 3.9082 3.47671 4.83927 2.33126 
12.1561 8.49597 2.75276 3.84106 1.5752 2.94212 2.37269 1.73868 2.55147 
7.66953 1.78048 1.81141 1.56984 2.70054 1.92091 6.66902 2.23153 2.09647 
3.32278 2.70154 1.19436 5.73692 4.20534 5.08002 2.62436 2.07109 1.65683 
1.51475 5.14422 2.53481 2.13337 1.74545 5.65511 2.59986 5.93025 3.25517 
2.03304 3.29748 1.95846 1.7188 1.83382 1.79107 0.851768 1.65639 4.30475 
2.94833 2.16385 3.05514 3.66306 -0.254547 3.01438 3.21376 -1.22418 2.70822 
0.241597 1.92977 -4.8171 3.78628 1.39478 -4.61193 0.541499 -0.11538 2.44283 
-1.10974 0.513761 2.69977 4.2327 1.94044 2.95764 1.09965 -0.279256 0.666881 
-0.989367 2.24255 2.75985 1.53551 3.47334 -0.0640051 0.989088 0.854223 2.79925 
0.399219 3.09081 -2.5915 0.890184 2.83419 2.72845 -3.02292 -1.0973 -0.000984177 
3.10429 2.12849 -0.223046 2.03831 1.21599 1.66668 1.24943 -1.79601 -0.190548 
1.11573 3.99338 4.97163 3.09284 3.71491 2.7696 -0.48519 -0.320234 0.574451 
2.15594 1.06365 16.4599 -0.224203 23.6419 -1.92739 1.45742 -0.511769 1.15058 
3.10824 -1.58529 -0.0682531 -0.500064 2.98246 0.180793 -1.03245 2.34608 -4.00283 
-4.23578 3.66279 0.189177 14.686 4.51152 1.1554 1.48238 0.0808306 -3.67031 
1.93242 2.27024 -4.91343 -0.251274 1.21424 1.81829 -1.89289 -7.22379 -12.1149 
-1.71332 1.33085 -0.365698 1.31157 1.74539 1.84377 1.00677 9.6863 10.4355 
0.65959 1.36456 1.39867 -2.06271 1.76245 1.62333 -1.9462 13.5821 1.45887 
-0.0716149 4.04289 1.1799 -2.27444 0.046305 1.50975 1.29589 0.690271 -0.193799 
0.363825 -0.689299 1.9625 2.81827 1.3478 0.473038 0.550816 1.38597 2.28185 
2.29094 1.66435 1.22836 1.09183 -0.489434 4.29301 1.02058 0.660784 0.628486 
2.23013 0.323109 3.64466 1.31872 1.32346 -0.0711001 1.83335 2.1587 -0.448359 
1.8322 1.37782 -0.966455 2.54964 1.75084 3.23324 0.464775 0.951491 1.68366 
1.95124 2.81915 3.27649 -5.42174 3.34758 -3.65289 1.35158 3.08426 0.0107726 
2.81506 -0.863464 0.759951 17.164 -1.03244 1.35019 2.72822 -0.0106962 0.389329 
-0.117795 2.53275 16.3858 3.47478 3.23662 5.29107 2.44036 5.40726 12.5142 

kmin 1 252 float
5.98313 4.48973 18.0928 5.24342 7.0489 15.7563 7.69707 4.34101 14.3162 
5.90464 8.29662 8.51344 9.87655 8.5349 9.10463 7.36671 10.2918 5.58804 
24.1268 16.8768 5.75534 8.08824 3.59843 6.09615 4.84278 3.78694 6.15519 
17.5611 4.534 4.09967 3.13228 5.47516 3.80765 13.2039 5.35922 4.78578 
6.35996 5.9328 2.70345 11.5998 8.26363 9.79001 5.24287 3.81844 3.56018 
3.81358 10.604 4.0785 4.12165 3.79353 10.7797 5.58375 11.0693 5.79951 
3.65136 5.34862 3.22454 3.92733 3.65616 1.98779 1.18412 3.94109 9.0057 
6.55012 3.50113 5.71192 5.60224 1.37343 4.42346 5.49424 -0.0510222 4.15761 
0.643894 3.57843 -2.75697 7.39365 1.70796 -1.01945 1.50088 1.39329 3.41349 
0.401965 2.1004 4.38237 9.02569 4.53758 5.12062 2.37602 0.68462 1.14718 
1.43872 3.48998 4.10224 3.09019 6.71537 0.592741 1.90612 1.53332 4.08277 
1.08551 7.06124 -1.54164 1.90693 4.42301 6.07847 -0.189299 -0.343589 0.419904 
5.44679 3.56703 1.43148 4.52422 2.1952 3.52469 2.37799 0.634862 1.2069 
1.39078 8.79385 10.3256 5.86409 5.81606 5.42209 0.748703 0.202515 0.745767 
4.411 1.37163 38.426 0.626854 41.2736 0.0460634 2.71581 0.436892 1.69422 
4.95539 -0.363 0.773324 0.889942 6.41391 2.80794 -0.383084 3.40219 -1.18972 
1.62012 7.988 2.17756 38.9408 9.10928 2.35593 1.93693 3.35837 -1.24284 
2.522 5.32929 -2.43306 2.8658 1.91998 4.48415 -0.230841 0.464382 -11.7488 
-0.249069 3.90911 1.39566 2.89415 3.43766 2.11107 2.35955 17.4095 21.1319 
1.37722 3.218 2.00395 -0.0317035 3.76257 2.82187 -1.08248 23.4261 3.42933 
1.58749 6.73205 4.48824 -0.348218 1.31878 1.94026 1.92651 3.70328 1.38709 
1.98081 0.426206 2.56977 3.9937 3.79079 2.43821 2.00062 2.83587 4.53808 
3.34021 4.4033 2.68742 2.22616 0.766601 8.25067 1.25433 1.92469 2.11206 
3.83458 0.970855 6.42471 3.35452 2.18233 2.182 3.083 3.2985 0.47587 
3.08013 2.24537 1.19276 4.22451 4.45934 5.51173 1.52037 3.96742 1.83003 
4.55316 4.60667 6.68659 0.623042 5.14916 1.21294 2.01216 5.67354 0.95554 
6.45059 1.11856 2.18196 22.8549 3.58176 4.38763 5.14089 2.20493 0.759064 
1.86018 5.92997 26.1973 7.46661 6.95622 10.3482 6.89289 9.95095 20.8199 

kmax 1 252 float
0.613611 -0.841477 -1.37362 1.77688 -0.29181 -0.29965 -1.18076 0.251862 2.80004 
-1.07804 -0.496028 -0.620167 -0.746451 0.468875 -1.28823 -0.413279 -0.613228 -0.925508 
0.185363 0.115138 -0.249816 -0.406109 -0.448034 -0.211903 -0.0974057 -0.309585 -1.05224 
-2.22207 -0.973046 -0.476846 0.00740116 -0.0740756 0.0341664 0.13409 -0.89616 -0.59285 
0.285608 -0.529726 -0.314734 -0.125966 0.147044 0.37004 0.00585606 0.323735 -0.246514 
-0.784068 -0.315592 0.99113 0.14508 -0.302626 0.530531 -0.384029 0.791226 0.710838 
0.414726 1.24634 0.692386 -0.489731 0.0114814 1.59434 0.519419 -0.628319 -0.396204 
-0.653455 0.826571 0.398368 1.72389 -1.88252 1.6053 0.933276 -2.39735 1.25883 
-0.160699 0.281107 -6.87722 0.178919 1.08159 -8.20442 -0.417883 -1.62405 1.47216 
-2.62144 -1.07288 1.01717 -0.560286 -0.656688 0.794656 -0.176727 -1.24313 0.186585 
-3.41746 0.995119 1.41747 -0.0191772 0.2313 -0.720751 0.0720528 0.175121 1.51572 
-0.287075 -0.879608 -3.64136 -0.126561 1.24538 -0.621574 -5.85654 -1.85102 -0.421872 
0.761796 0.689942 -1.87757 -0.4476 0.23679 -0.191328 0.120874 -4.22688 -1.58799 
0.840687 -0.807084 -0.382383 0.321577 1.61376 0.117098 -1.71908 -0.842983 0.403135 
-0.099118 0.75568 -5.50613 -1.07526 6.01018 -3.90084 0.199019 -1.46043 0.606931 
1.2611 -2.80758 -0.90983 -1.89007 -0.448995 -2.44636 -1.68182 1.28997 -6.81593 
-10.0917 -0.662422 -1.7992 -9.56873 -0.0862383 -0.0451225 1.02783 -3.19671 -6.09779 
1.34284 -0.788822 -7.3938 -3.36835 0.508506 -0.847568 -3.55493 -14.912 -12.4809 
-3.17757 -1.24742 -2.12706 -0.271017 0.0531189 1.57648 -0.34602 1.96314 -0.260956 
-0.0580415 -0.48888 0.793392 -4.09371 -0.237668 0.424791 -2.80992 3.7381 -0.51159 
-1.73072 1.35373 -2.12845 -4.20066 -1.22617 1.07924 0.665272 -2.32274 -1.77469 
-1.25316 -1.8048 1.35524 1.64284 -1.09518 -1.49213 -0.898988 -0.0639303 0.0256153 
1.24167 -1.0746 -0.230696 -0.0424982 -1.74547 0.335347 0.786836 -0.603117 -0.855084 
0.625693 -0.324636 0.8646 -0.717085 0.464588 -2.3242 0.583701 1.01889 -1.37259 
0.584274 0.510265 -3.12567 0.874782 -0.957662 0.954758 -0.590822 -2.06444 1.5373 
-0.650688 1.03163 -0.133612 -11.4665 1.54601 -8.51872 0.690993 0.494986 -0.933995 
-0.820463 -2.84549 -0.662062 11.4732 -5.64663 -1.68725 0.315539 -2.22633 0.019594 
-2.09577 -0.864475 6.57426 -0.517042 -0.482976 0.233946 -2.01216 0.863577 4.20843 

hks 16 252 double
0.9564533356 0.9599622858 0.96321814751 0.96623566462 0.96903164455 0.97162481284 0.97403566805 0.97628633737 0.97840043261 
0.98040290516 0.98231989795 0.98417859219 0.98600704651 0.98783402628 0.98968882166 0.99160105323 0.95015568306 0.95256955614 
0.95480067162 0.95685989468 0.9587601205 0.96051622251 0.96214498848 0.96366504319 0.96509675671 0.96646213647 0.96778470148 
0.96908933725 0.97040213023 0.97175018087 0.97316139564 0.97466425861 0.93836571032 0.94069096209 0.94280803277 0.9447355892 
0.94649382434 0.94810432634 0.94958995329 0.95097471229 0.95228364062 0.95354268637 0.95477858544 0.95601873175 0.95729103798 
0.9586237845 0.96004545495 0.96158455791 0.80635884588 0.81361714158 0.82075841923 0.82777971556 0.83467998624 0.84146010993 
0.84812287457 0.85467294666 0.86111682441 0.86746277524 0.87372075796 0.87990232992 0.88602053954 0.89208980429 0.89812577496 
0.90414518655 0.85237184992 0.85767796304 0.86278776248 0.86771274875 0.87246625603 0.87706330227 0.88152043624 0.88585558321 
0.89008789064 0.89423757456 0.89832576647 0.90237436056 0.90640586058 0.91044322563 0.91450971436 0.91862872695 0.72051163588 
0.72671989572 0.73284028005 0.73887763839 0.74483859537 0.75073144331 0.75656602087 0.76235358075 0.7681066486 0.77383887528 
0.77956488418 0.78530011478 0.79106066393 0.79686312551 0.80272442979 0.80866168321 0.68623374693 0.6923418271 0.69840028087 
0.70440959095 0.71037194286 0.71629121381 0.72217294202 0.72802427722 0.73385391245 0.73967199772 0.74549003598 0.75132076191 
0.75717800434 0.76307653348 0.76903189428 0.77506022788 0.75896621481 0.76717215016 0.77522633903 0.78312607264 0.79087076252 
0.79846193043 0.80590317961 0.81320014804 0.82036044436 0.82739356676 0.83431080503 0.84112512625 0.84785104427 0.8545044738 
0.86110256998 0.86766355451 0.64743484226 0.65472710283 0.66229449846 0.67012020112 0.67818656779 0.68647542401 0.69496835113 
0.70364697166 0.71249322692 0.72148964185 0.73061957198 0.73986742812 0.74921887506 0.75866100099 0.76818245537 0.77777355358 
0.60574584573 0.60926101542 0.61306132215 0.61714657402 0.62151549667 0.62616587366 0.63109469126 0.63629828303 0.64177247007 
0.6475126937 0.65351413779 0.65977183896 0.66628078337 0.67303598976 0.68003257851 0.68726582744 0.61019488832 0.61220334596 
0.61451069846 0.61712885811 0.62006854217 0.623339184 0.62694886185 0.63090424686 0.63521057121 0.63987161679 0.64488972446 
0.65026582309 0.6559994771 0.66208895099 0.66853128836 0.67532240309 0.62621244115 0.63315197959 0.64026393554 0.64753965078 
0.65497078481 0.66254941135 0.67026810176 0.67811999562 0.68609885853 0.69419912782 0.70241594673 0.71074518769 0.71918346566 
0.72772814184 0.7363773188 0.74512982717 0.44812853576 0.452943388 0.45802766988 0.46338107233 0.46900261753 0.47489071665 
0.48104322953 0.48745752517 0.49413054147 0.50105884338 0.50823867859 0.51566602989 0.52333666385 0.53124617528 0.53939002736 
0.54776358724 0.61581747728 0.61964299876 0.62375987666 0.62817741549 0.63290293897 0.63794173216 0.64329702542 0.64897001977 
0.65495995165 0.66126419448 0.66787839343 0.67479662897 0.68201160445 0.68951485224 0.69729695302 0.70534776232 0.55434493818 
0.5542492796 0.5543896917 0.55479316685 0.55548586795 0.55649281062 0.55783755812 0.55954193574 0.56162577079 0.56410666427 
0.56699979956 0.57031779254 0.57407058662 0.5782653948 0.58290668962 0.58799624031 0.49997398141 0.50065482065 0.50166447678 
0.50301558755 0.50472008156 0.50678903806 0.50923255022 0.51205959564 0.51527791781 0.51889392181 0.52291258705 0.52733739954 
0.53217030517 0.53741168525 0.54306035467 0.54911358247 0.37296087594 0.37269851446 0.37263465332 0.37278639551 0.37317008949 
0.37380122228 0.37469432306 0.37586287792 0.37731925553 0.37907464423 0.38113900064 0.38352100994 0.38622805814 0.38926621639 
0.39264023741 0.39635356399 0.54320545858 0.54222601812 0.54162113015 0.541416936 0.5416372001 0.54230304248 0.54343271558 
0.54504142953 0.54714122902 0.54974092377 0.55284607318 0.55645902446 0.56057900234 0.5652022471 0.57032219651 0.57592970627 
0.58408060351 0.58745475497 0.591008858 0.59475852223 0.59871886339 0.60290429781 0.60732835382 0.61200350435 0.61694102447 
0.62215087626 0.62764162295 0.63342037289 0.63949275299 0.64586291054 0.65253354121 0.65950594063 0.46008220805 0.45505039149 
0.44998696377 0.44491489825 0.43985828454 0.43484218783 0.42989248907 0.42503570675 0.42029880098 0.41570896186 0.4112933846 
0.4070790349 0.4030924085 0.39935928965 0.3959045134 0.39275173706 0.40590344601 0.40177910328 0.39773767545 0.39379449134 
0.38996557417 0.38626755683 0.38271757829 0.37933316238 0.37613208073 0.37313220225 0.37035133231 0.36780704489 0.36551651162 
0.36349633156 0.36176236583 0.36032958091 0.43573823932 0.43303055345 0.43055713716 0.42833803469 0.42639296651 0.42474116922 
0.42340123175 0.42239093087 0.42172706914 0.4214253185 0.42150007313 0.42196431451 0.4228294919 0.42410542094 0.42580020242 
0.42792016307 0.64579179448 0.64445691693 0.64315264127 0.6419086682 0.64075555355 0.63972451498 0.63884722378 0.63815558077 
0.63768147614 0.6374565337 0.63751184114 0.63787766905 0.63858318244 0.63965614943 0.64112265263 0.64300680931 0.59891336047 
0.59739890254 0.59591343371 0.59448619421 0.59314778339 0.59192989761 0.5908650417 0.58998621698 0.58932658959 0.58891914357 
0.58879632416 0.58898967715 0.58952949095 0.59044444805 0.591761293 0.59350452373 0.46711206869 0.46219669024 0.45724882012 
0.45228300176 0.44731518529 0.44236268253 0.43744409714 0.4325792293 0.42778895523 0.42309508252 0.41852018266 0.41408740338 
0.40982026359 0.40574243461 0.40187751192 0.39824878193 0.46097259693 0.45802934267 0.4552485038 0.45264074756 0.45021733712 
0.44799018969 0.44597190699 0.44417577439 0.44261572692 0.44130628113 0.44026243349 0.43949952734 0.43903309142 0.43887865449 