# vtk DataFile Version 5.1
vtk output
ASCII
DATASET POLYDATA
POINTS 252 float
0.886666 0.058097 -0.096032 0.870983 0.085122 -0.021467 0.889227 0.014796 -0.043677 
0.799406 -0.034758 0.006061 0.861198 -0.080773 -0.029207 0.830207 0.094026 -0.088178 
0.821436 0.094352 -0.02691 0.857752 -0.089423 -0.118135 0.831768 -0.117036 -0.157492 
0.822975 -0.142195 0.015209 0.787171 -0.008983 -0.124934 0.824721 -0.222338 -0.062762 
0.781645 0.044359 -0.0706 0.763634 -0.243218 -0.134788 0.695568 -0.066078 -0.136145 
0.700099 -0.190443 -0.13252 0.721873 -0.243317 -0.034736 0.697863 -0.021915 -0.107605 
0.675809 -0.043772 -0.005444 0.67491 -0.089981 0.011369 0.69979 -0.248129 -0.079338 
0.72034 -0.017522 -0.019379 0.620826 -0.001558 -0.077331 0.609921 0.009814 -0.03365 
0.585836 -0.075952 -0.116499 0.543436 -0.241745 -0.035438 0.544794 0.014724 -0.100399 
0.637307 -0.1848 0.00405 0.568589 -0.008961 0.011843 0.529716 -0.131429 0.035549 
0.550022 -0.081894 0.034729 0.502901 0.053817 -0.024537 0.404196 0.051251 -0.04744 
0.48906 -0.047666 -0.113755 0.530116 -0.141433 -0.102058 0.411548 0.07662 0.016045 
0.446049 -0.065538 0.094458 0.426031 0.053262 0.073822 0.372039 0.062881 0.135777 
0.493062 -0.236266 0.017137 0.350597 0.068552 -0.096518 0.335067 -0.223695 0.040155 
0.341079 0.176375 0.075671 0.459683 -0.23125 -0.019103 0.343747 0.153914 0.022906 
0.340589 0.151143 -0.080226 0.353196 -0.169742 -0.015501 0.326489 0.148451 0.149541 
0.237163 -0.001438 -0.133643 0.350396 -0.008794 0.156815 0.374554 -0.116088 0.12631 
0.240887 0.224454 -0.074814 0.314863 -0.127579 0.159825 0.361725 -0.048301 -0.087613 
0.238556 0.187779 0.153973 0.293751 0.115149 -0.120388 0.289324 0.197568 0.049582 
0.268848 0.227354 0.099739 0.320836 -0.177596 0.110192 0.285279 -0.144008 -0.069736 
0.195057 0.283745 0.116759 0.253976 -0.203196 0.104618 0.22138 0.208988 -0.012307 
0.199613 0.216403 0.036976 0.188401 0.121255 -0.135003 0.211766 0.252882 0.153131 
0.206942 -0.21079 0.012226 0.048366 0.354937 -0.037155 0.257227 0.001597 0.195699 
0.233135 0.086319 0.196485 0.156721 0.183657 0.148876 0.199318 0.23425 -0.11643 
0.163908 0.193496 0.048793 0.166913 0.186114 -0.015558 0.12437 0.165468 -0.073988 
0.15528 0.031799 0.190891 0.089802 0.307226 0.170458 0.10273 0.30528 -0.093298 
0.089156 0.31243 0.110747 0.190528 -0.10649 -0.087222 0.083982 0.334799 0.168835 
0.136731 -0.1656 0.139646 0.145589 0.028876 -0.111267 0.060143 0.288287 -0.094751 
0.061272 0.281603 -0.032061 0.14176 0.12794 0.139378 0.075335 0.159586 0.11036 
0.051427 0.369679 -0.066352 0.068453 0.030023 0.221677 0.122233 0.194199 0.12101 
0.110422 -0.167833 -0.056792 0.070224 0.290313 0.105344 0.069499 -0.006858 -0.137846 
0.041328 0.292163 0.168973 0.080243 0.145202 -0.0542 0.007934 -0.145903 -0.088775 
0.017758 0.369898 0.138549 0.060102 0.264215 -0.064519 0.035678 -0.180831 -0.035134 
-0.012464 0.344685 -0.036988 0.01221 0.155508 0.028187 0.200159 -0.115873 0.173759 
0.003105 0.31559 0.133232 -0.031343 0.344908 -0.065991 -0.0269 -0.00107 0.239452 
-0.013854 0.33646 0.211549 -0.144881 0.290492 0.23519 0.02794 0.370358 -0.090877 
-0.068475 -0.060737 -0.16276 0.047593 0.10769 -0.10266 -0.066102 0.128123 -0.062148 
-0.063722 0.41462 -0.070861 0.060022 0.134167 0.16718 0.09095 -0.191903 0.087217 
-0.125339 0.449651 -0.047515 -0.125267 0.471741 -0.087761 -0.132813 0.248489 0.224428 
-0.103275 0.048571 -0.145751 -0.0701 0.280949 0.213004 -0.139383 0.397099 -0.049554 
-0.208825 0.479013 -0.103624 -0.17618 0.526075 -0.033063 -0.119425 0.306266 0.260747 
-0.181292 0.531496 -0.111036 -0.055341 0.069293 0.219059 -0.124315 0.139989 0.091088 
-0.139912 0.428968 -0.093346 -0.105379 0.195728 0.267264 -0.064989 -0.192506 0.116195 
-0.234583 0.444059 0.153378 -0.217629 0.470077 -0.038263 -0.151263 -0.073486 -0.151542 
-0.178089 0.433608 0.183129 -0.162016 0.217932 0.280797 -0.179841 0.461914 0.23784 
-0.020878 -0.125584 0.203116 -0.169256 0.082922 -0.100093 -0.186478 0.494694 0.174958 
-0.093903 -0.170313 0.144561 -0.154492 0.1808 0.236912 -0.078379 -0.194379 -0.043157 
-0.133008 -0.156937 -0.131174 -0.157319 0.072999 0.190259 -0.187693 -0.224766 -0.029185 
-0.207628 0.118608 -0.165253 -0.335912 0.41668 0.14081 -0.212933 0.021506 -0.174843 
-0.286166 0.465144 0.191387 -0.177065 -0.066412 0.208049 -0.251753 0.468511 0.159718 
-0.305561 0.403171 0.156538 -0.242193 0.029983 0.160878 -0.261162 0.429982 0.19792 
-0.210303 0.111926 0.015945 -0.231591 0.08992 0.102414 -0.204638 -0.11837 0.180496 
-0.300679 0.113623 -0.075139 -0.293312 0.167539 -0.24091 -0.278921 -0.07983 -0.213242 
-0.200852 -0.22425 -0.084859 -0.348974 0.522299 -0.351226 -0.378707 0.532919 -0.39328 
-0.284412 0.157269 0.127931 -0.268009 0.083855 0.153811 -0.373608 0.268696 -0.277524 
-0.372747 0.382311 0.167168 -0.355234 0.211728 0.090715 -0.446673 0.550711 -0.321876 
-0.305965 0.036579 -0.232286 -0.414392 0.469405 -0.364297 -0.302806 0.178767 -0.181844 
-0.347285 0.214808 -0.277834 -0.365296 -0.160277 0.149506 -0.401437 0.35888 -0.335808 
-0.360769 0.417725 0.147887 -0.392738 0.379237 -0.323818 -0.20677 -0.173845 0.159082 
-0.398805 0.481039 -0.307231 -0.403045 0.316381 0.161907 -0.384438 0.332699 0.132272 
-0.409264 0.277305 -0.315941 -0.320455 -0.107009 0.177093 -0.361854 0.132016 0.013245 
-0.248692 -0.225873 0.090173 -0.37471 0.17788 -0.25646 -0.401092 0.288495 -0.260534 
-0.37553 0.13737 -0.186846 -0.433007 0.420488 -0.364846 -0.377671 0.275573 0.128702 
-0.372979 0.092609 -0.22984 -0.363922 0.124756 -0.11374 -0.405493 0.229914 -0.248487 
-0.418372 0.300295 0.104123 -0.387749 0.24073 0.168424 -0.439642 0.45664 -0.334227 
-0.427721 0.356863 -0.305037 -0.451665 0.33298 0.116978 -0.354449 0.062076 0.16821 
-0.438668 0.240523 -0.292235 -0.385356 0.091601 -0.040018 -0.387121 -0.05974 0.173173 
-0.352513 -0.234381 -0.014509 -0.442117 0.322575 0.154282 -0.300199 -0.190261 -0.161422 
-0.43018 0.033748 0.152995 -0.431527 0.15357 0.118247 -0.437681 0.240312 0.122383 
-0.415453 -0.193607 -0.095411 -0.37564 -0.207095 0.085913 -0.4446 -0.035347 -0.04798 
-0.340715 -0.228794 -0.089267 -0.39946 0.185637 0.073141 -0.372948 -0.064261 -0.211028 
-0.425383 0.054486 -0.175322 -0.416785 0.060716 -0.103027 -0.412249 -0.228546 -0.049972 
-0.410608 -0.194239 0.022573 -0.451339 -0.07893 -0.167317 -0.452568 -0.18364 -0.043287 
-0.465486 -0.074058 -0.110361 -0.442767 -0.149963 -0.032907 -0.459603 -0.152939 0.073384 
-0.436554 -0.256196 -0.0279 -0.485815 -0.06273 -0.003244 -0.455814 -0.230632 0.007371 
-0.487735 0.105553 0.074787 -0.464111 -0.063705 0.119488 -0.489 -0.221052 -0.106264 
-0.504678 -0.051384 0.059422 -0.417936 -0.587089 0.058209 -0.45579 -0.356368 -0.029786 
-0.459269 -0.505047 -0.066389 -0.462318 -0.472435 0.017418 -0.439324 -0.625453 0.120223 
-0.441803 -0.550371 0.101506 -0.474919 -0.315403 -0.096351 -0.515988 -0.198094 -0.025581 
-0.508548 -0.335709 0.013196 -0.517875 -0.44949 -0.115859 -0.511964 -0.224675 0.015361 
-0.490611 -0.564133 0.105478 -0.483035 -0.581233 -0.007114 -0.554259 -0.301626 -0.117801 
-0.522733 -0.536828 -0.076249 -0.507905 -0.468108 0.043201 -0.530238 -0.572611 0.032796 
-0.575624 -0.371633 0.011392 -0.5803 -0.521172 -0.006874 -0.586038 -0.297458 -0.008877 
-0.557074 -0.527329 0.03587 -0.563894 -0.407517 -0.111214 -0.600672 -0.391024 -0.023435 

POLYGONS 501 1500
OFFSETS vtktypeint64
0 3 6 9 12 15 18 21 24 
27 30 33 36 39 42 45 48 51 
54 57 60 63 66 69 72 75 78 
81 84 87 90 93 96 99 102 105 
108 111 114 117 120 123 126 129 132 
135 138 141 144 147 150 153 156 159 
162 165 168 171 174 177 180 183 186 
189 192 195 198 201 204 207 210 213 
216 219 222 225 228 231 234 237 240 
243 246 249 252 255 258 261 264 267 
270 273 276 279 282 285 288 291 294 
297 300 303 306 309 312 315 318 321 
324 327 330 333 336 339 342 345 348 
351 354 357 360 363 366 369 372 375 
378 381 384 387 390 393 396 399 402 
405 408 411 414 417 420 423 426 429 
432 435 438 441 444 447 450 453 456 
459 462 465 468 471 474 477 480 483 
486 489 492 495 498 501 504 507 510 
513 516 519 522 525 528 531 534 537 
540 543 546 549 552 555 558 561 564 
567 570 573 576 579 582 585 588 591 
594 597 600 603 606 609 612 615 618 
621 624 627 630 633 636 639 642 645 
648 651 654 657 660 663 666 669 672 
675 678 681 684 687 690 693 696 699 
702 705 708 711 714 717 720 723 726 
729 732 735 738 741 744 747 750 753 
756 759 762 765 768 771 774 777 780 
783 786 789 792 795 798 801 804 807 
810 813 816 819 822 825 828 831 834 
837 840 843 846 849 852 855 858 861 
864 867 870 873 876 879 882 885 888 
891 894 897 900 903 906 909 912 915 
918 921 924 927 930 933 936 939 942 
945 948 951 954 957 960 963 966 969 
972 975 978 981 984 987 990 993 996 
999 1002 1005 1008 1011 1014 1017 1020 1023 
1026 1029 1032 1035 1038 1041 1044 1047 1050 
1053 1056 1059 1062 1065 1068 1071 1074 1077 
1080 1083 1086 1089 1092 1095 1098 1101 1104 
1107 1110 1113 1116 1119 1122 1125 1128 1131 
1134 1137 1140 1143 1146 1149 1152 1155 1158 
1161 1164 1167 1170 1173 1176 1179 1182 1185 
1188 1191 1194 1197 1200 1203 1206 1209 1212 
1215 1218 1221 1224 1227 1230 1233 1236 1239 
1242 1245 1248 1251 1254 1257 1260 1263 1266 
1269 1272 1275 1278 1281 1284 1287 1290 1293 
1296 1299 1302 1305 1308 1311 1314 1317 1320 
1323 1326 1329 1332 1335 1338 1341 1344 1347 
1350 1353 1356 1359 1362 1365 1368 1371 1374 
1377 1380 1383 1386 1389 1392 1395 1398 1401 
1404 1407 1410 1413 1416 1419 1422 1425 1428 
1431 1434 1437 1440 1443 1446 1449 1452 1455 
1458 1461 1464 1467 1470 1473 1476 1479 1482 
1485 1488 1491 1494 1497 1500 
CONNECTIVITY vtktypeint64
124 112 142 68 75 101 118 105 122 
54 65 76 127 139 116 116 139 106 
69 54 70 88 112 124 68 47 69 
75 112 88 104 88 124 104 124 142 
104 142 148 68 69 75 101 75 88 
101 88 104 135 104 148 135 101 104 
132 137 134 118 122 127 122 133 127 
133 122 106 116 118 127 133 106 139 
127 133 139 117 146 136 110 109 117 
82 92 109 64 55 48 45 40 55 
199 190 214 153 144 156 144 170 156 
136 144 153 110 117 136 71 55 64 
51 55 71 190 213 214 156 170 190 
71 64 83 238 243 250 238 231 243 
242 238 250 235 238 242 235 231 238 
227 235 242 203 210 207 136 146 144 
141 159 203 108 141 131 217 203 207 
158 141 203 158 131 141 212 203 217 
117 108 131 213 217 219 212 217 213 
146 131 158 117 131 146 190 186 213 
144 146 157 190 170 186 158 203 212 
168 158 212 168 146 158 189 212 213 
189 168 212 157 168 189 146 168 157 
186 189 213 184 189 186 184 171 189 
144 157 170 186 170 191 94 109 110 
74 109 94 73 74 94 64 74 97 
58 50 52 149 129 145 149 145 174 
102 93 118 50 49 52 138 135 155 
135 148 155 138 155 176 155 181 176 
176 181 172 61 52 101 81 101 135 
128 135 138 137 132 129 134 137 147 
137 129 149 147 137 149 152 134 147 
147 149 174 147 174 165 152 132 134 
129 132 152 129 152 150 152 147 165 
152 165 150 178 150 165 80 96 105 
105 96 106 105 106 122 93 76 105 
76 80 105 93 105 118 106 96 102 
106 102 116 102 118 116 74 64 109 
74 73 97 218 227 236 83 64 97 
97 84 103 107 77 83 51 77 67 
51 67 73 51 71 77 119 103 99 
107 83 103 83 97 103 77 107 87 
67 77 87 126 103 119 115 111 126 
111 115 114 107 103 126 111 107 126 
87 107 111 67 87 111 120 126 130 
119 130 126 115 126 120 123 120 130 
121 123 130 123 115 120 121 115 123 
243 245 247 241 245 243 51 45 55 
77 71 83 218 215 227 207 218 220 
207 215 218 207 201 215 201 222 215 
210 201 207 141 95 140 95 141 108 
92 79 95 79 90 95 48 59 79 
53 59 48 26 24 33 22 24 26 
22 17 24 10 14 17 0 7 10 
207 220 219 92 95 108 82 48 79 
40 53 48 26 33 53 220 209 219 
108 117 109 109 92 108 82 79 92 
64 48 82 48 55 40 209 214 219 
219 214 213 217 207 219 171 157 189 
184 191 198 186 191 184 99 114 119 
86 73 94 244 237 246 16 11 9 
232 230 244 244 246 249 247 246 251 
249 246 247 11 16 20 234 232 244 
234 244 240 249 240 244 229 232 234 
233 240 245 240 249 245 245 249 247 
229 233 241 241 233 245 114 115 121 
119 114 130 114 121 130 67 114 99 
67 111 114 84 67 99 84 99 103 
51 73 62 73 67 84 73 84 97 
182 199 211 199 225 211 44 45 51 
44 51 62 56 44 62 63 56 62 
73 63 62 63 73 72 72 73 86 
86 94 100 100 94 110 157 171 164 
170 157 164 191 195 198 191 185 195 
170 185 191 170 164 185 164 171 180 
185 164 195 177 167 194 177 160 167 
160 161 167 180 171 184 184 198 180 
180 198 187 173 180 187 164 175 195 
164 180 173 175 164 173 195 194 198 
194 187 198 195 175 177 195 177 194 
169 187 194 169 173 187 160 175 173 
175 160 177 169 160 173 167 169 194 
161 169 167 161 160 169 163 162 193 
91 89 93 89 76 93 70 54 76 
65 60 76 65 57 60 193 188 178 
91 93 102 96 78 102 78 91 102 
80 78 96 60 78 80 76 60 80 
206 202 196 193 178 206 178 202 206 
179 178 188 179 188 192 165 196 202 
178 165 202 174 192 196 174 196 165 
174 145 192 145 179 192 179 150 178 
150 179 145 129 150 145 233 234 240 
101 81 61 61 58 52 39 50 58 
39 29 50 183 172 208 61 81 113 
60 63 78 162 166 188 41 58 61 
39 58 41 52 68 101 11 4 9 
16 9 19 16 19 27 211 166 182 
138 183 143 183 208 201 9 4 3 
9 3 19 27 19 30 27 30 29 
46 41 66 66 41 61 61 113 66 
41 43 39 229 234 233 192 188 166 
192 166 211 192 211 206 196 192 206 
57 56 60 78 63 91 91 63 72 
91 72 89 166 154 182 155 148 181 
52 49 68 49 38 68 226 200 204 
181 197 200 151 197 181 148 151 181 
148 142 151 75 85 112 69 85 75 
38 47 68 197 204 200 197 151 163 
142 154 151 112 85 86 85 69 70 
69 47 54 38 42 47 38 44 42 
204 197 205 197 163 193 112 125 142 
86 125 112 85 70 86 70 89 86 
54 57 65 47 57 54 47 42 57 
197 193 205 162 188 193 89 70 76 
205 193 206 172 181 200 151 154 163 
138 176 183 113 135 128 113 81 135 
50 36 49 29 36 50 30 36 29 
172 183 176 36 38 49 30 28 36 
36 28 37 172 200 221 200 226 221 
37 38 36 38 37 44 37 35 44 
226 204 228 228 204 225 142 125 154 
204 205 225 166 162 154 163 154 162 
154 125 153 125 86 100 89 72 86 
42 56 57 56 42 44 205 211 225 
60 56 63 128 138 143 28 31 37 
25 39 43 27 29 39 25 27 39 
209 199 214 32 26 53 125 110 153 
110 136 153 156 190 182 182 190 199 
199 209 225 44 40 45 64 82 109 
40 32 53 209 220 223 223 221 228 
1 0 5 1 5 6 5 0 10 
5 10 12 6 5 12 23 22 26 
23 26 31 31 26 32 31 32 35 
223 220 221 0 1 2 2 7 0 
12 10 17 21 12 17 17 22 21 
21 22 23 18 21 23 201 216 222 
216 224 222 220 216 221 216 220 224 
224 220 218 20 27 25 20 16 27 
246 248 251 230 224 237 46 43 41 
34 43 46 34 25 43 7 4 11 
239 236 248 239 248 246 237 239 246 
128 143 140 98 140 95 90 66 98 
95 90 98 79 66 90 79 59 66 
59 46 66 53 46 59 34 46 53 
7 2 4 224 239 237 224 236 239 
224 218 236 230 237 244 143 183 201 
140 113 128 98 113 140 98 66 113 
19 18 30 3 18 19 208 172 221 
216 208 221 201 208 216 18 28 30 
18 23 28 3 21 18 6 12 21 
3 6 21 3 1 6 2 3 4 
2 1 3 37 31 35 23 31 28 
221 226 228 225 223 228 225 209 223 
153 156 182 154 153 182 100 110 125 
35 40 44 35 32 40 231 229 241 
232 229 231 251 242 250 243 247 250 
231 241 243 33 34 53 141 140 159 
236 227 242 7 8 10 10 8 14 
8 15 14 24 14 15 17 14 24 
33 24 34 140 143 159 159 143 201 
210 159 201 159 210 203 235 215 222 
227 215 235 235 222 230 236 242 248 
248 242 251 8 7 11 24 15 34 
15 25 34 230 231 235 8 11 13 
8 13 15 13 20 15 15 20 25 
250 247 251 13 11 20 230 232 231 
206 211 205 230 222 224 
POINT_DATA 252
SCALARS k float
LOOKUP_TABLE default
1.09207 1.44018 0.261572 -0.0714261 -0.0505297 1.14045 0.911674 -0.138605 0.797274 
0.747532 -0.164059 0.817976 -0.223997 1.16144 0.0387704 -0.0475276 0.412783 -0.467089 
-0.120153 -0.159192 -0.249581 -0.839188 -0.327073 -0.210464 -0.168663 -0.0552613 0.387247 
-0.202781 -0.163969 -0.044392 -0.111055 0.0761426 -0.667211 0.0856246 -0.0108335 -0.363002 
-0.045117 -0.210184 -0.101448 0.14087 -0.132133 -0.20459 0.342739 0.0613708 -0.405581 
0.573804 -0.189319 0.368621 0.191914 0.0387071 -0.0506642 -0.454999 0.254956 -0.532189 
-0.31652 0.0634266 -0.079431 -0.126436 -0.0682723 0.208057 0.136056 0.138457 -0.336582 
-0.685891 -0.263482 0.2947 -0.00806797 0.0149489 0.0952504 0.137035 -0.387453 0.274312 
-0.420976 -1.48677 -1.9667 -0.296401 -0.377338 -0.301161 -0.175312 -0.163015 0.186441 
-0.041582 -0.154933 -0.16926 -0.0767385 -0.0720516 -0.770309 0.436075 0.107443 -2.05088 
0.030436 -0.334667 0.0350956 -1.14208 -0.167924 -0.10322 1.46326 -0.253569 -0.10679 
-0.17374 0.0264493 -0.0689472 -0.272427 -0.387161 0.189945 0.00614429 0.74601 0.0901792 
0.173188 -0.307895 0.0644376 -0.489461 0.220832 -0.100119 -0.548389 -0.231284 -0.576154 
-0.0887455 -1.34502 0.303435 1.17738 2.01932 0.80119 2.44246 0.154171 0.144488 
-0.183135 1.65349 0.0696715 -0.0479215 1.63829 -0.120532 1.73419 1.70995 2.79701 
0.137501 -0.81122 2.15005 -0.187903 2.82017 -0.112127 -0.0885135 0.229116 -0.0202774 
0.140728 -0.13635 -0.415742 0.463332 -0.00215584 0.105951 -0.629435 -0.566841 -0.389809 
-0.287083 -1.03629 -0.0531819 -0.0940263 -0.185356 0.140109 0.163498 1.62985 2.36793 
0.0458189 -0.0512656 -0.687519 -0.362393 -0.194329 3.10006 0.0141178 -0.523552 -0.460728 
0.000248432 0.260535 -0.0843663 0.218466 -0.731513 0.11974 0.20541 -0.862237 -0.959935 
-0.0718473 -0.0435069 -0.753116 0.188376 -0.729544 -0.0967864 -0.89516 0.670943 -0.66561 
-0.432739 -0.37825 -0.332916 -0.35619 -0.0444675 -0.292768 -0.511711 1.40263 -0.114199 
1.12601 -0.349911 0.139365 -0.552606 0.778666 0.317203 0.138665 -0.882385 -0.275961 
-0.246086 0.196678 -0.420137 0.192609 -0.720316 0.112339 0.147486 0.0367656 -1.60029 
-1.28301 0.550741 -2.3422 0.256483 -0.936055 0.404 -1.05615 0.203519 -1.07854 
0.770765 0.148834 0.939686 0.386776 0.715439 -0.340749 0.249223 -0.446293 3.12174 
0.590574 -0.184768 0.643142 -0.236997 0.332018 0.692126 0.452404 0.201882 0.575008 
0.663774 -0.429242 0.175264 0.0114667 0.522922 0.534218 0.00911713 0.329791 0.259893 

FIELD FieldData 7
h 1 252 float
2.20613 0.377878 1.08905 1.9251 1.90497 1.95071 1.19878 3.32722 1.75083 
1.16634 2.14143 11.7257 1.91892 1.84987 2.18925 1.80726 2.00926 2.22339 
1.23248 1.46069 9.54855 2.93631 2.38136 2.39085 1.81461 5.53995 1.84403 
2.17479 1.35142 1.57773 1.17668 3.20089 1.67987 1.48562 1.60409 3.23574 
1.67874 1.52084 2.01949 2.27411 1.95888 4.72285 4.28663 2.9218 5.80202 
3.84788 2.07635 2.83298 1.20372 2.18017 2.48149 2.95539 2.16839 0.968734 
2.06125 1.52899 2.81789 4.39573 2.52481 1.84469 2.86097 3.04951 3.28011 
1.63297 0.713611 3.91652 4.71115 0.7478 2.1051 2.10523 1.1796 1.4146 
-2.75025 0.178346 -0.444245 1.731 1.16793 4.29569 1.4514 1.40955 3.5772 
2.46348 0.691392 -0.425518 -6.11925 1.04789 0.371164 4.58565 1.98592 -2.93571 
2.73948 -7.62069 1.24497 0.0235509 0.703376 1.83824 2.34486 -1.16575 3.80214 
-4.46512 -0.996711 1.94601 -5.4146 1.86268 2.46812 3.05205 -0.817359 -0.323348 
1.10101 1.00218 -0.231347 5.03746 1.6608 2.61898 1.06757 1.33989 -6.8427 
0.901601 -0.643692 2.0539 -3.84126 1.01135 -0.818892 7.2173 1.95446 -0.430084 
-6.47346 -1.21828 2.13365 3.04065 0.736153 0.371156 16.7766 -2.25692 -0.373735 
2.2807 0.110387 0.309223 2.53719 -2.28805 3.67839 1.06139 1.89598 3.11654 
-0.253943 0.479216 0.370387 2.72061 1.96568 0.330801 -4.66104 1.39501 -1.8654 
-3.62509 -1.90428 2.09437 -2.54413 0.444752 0.595486 2.05175 2.27278 -0.074423 
0.182027 0.761032 0.143801 0.666499 -3.26986 5.93988 0.627705 3.2651 -0.656853 
-0.0486936 2.03152 -0.444538 0.128873 -8.32847 1.76943 8.74393 -0.417136 -4.37389 
-0.259943 1.16658 -2.69721 2.27106 3.29224 -1.1075 1.01147 5.12011 -2.40744 
2.25828 0.394465 1.16741 1.05125 0.117258 2.3315 0.124052 0.224757 1.17527 
1.03394 0.525932 1.68924 2.89787 2.90825 0.804087 2.90504 2.98561 1.06893 
2.16474 1.66104 0.266758 1.77605 1.53815 1.8124 2.38556 0.0746051 -0.847393 
0.801887 2.49061 -0.922333 0.286876 5.71323 3.26734 1.13297 2.86713 -0.102379 
-0.316183 2.77754 2.72357 4.20862 -0.247201 -2.78637 0.72664 5.60464 7.74377 
13.2612 -0.544393 1.32037 -0.917576 0.787099 1.19953 1.85361 0.356313 3.96429 
3.02483 0.18835 2.27041 1.59428 5.63843 3.37721 1.50046 10.5291 8.43333 

kmin 1 252 float
3.41457 1.4011 2.10715 5.07757 3.8992 3.89933 7.17863 6.33029 4.07643 
3.66035 5.14197 24.4879 9.53841 3.87311 5.36775 4.32801 4.49443 5.78277 
3.56312 3.24782 18.8668 10.8085 5.70536 6.05903 4.48294 11.1758 4.27004 
4.38558 3.17551 3.16062 2.78965 7.37639 4.38297 3.48098 3.86265 7.46026 
3.37679 3.04487 3.51462 4.24259 4.41919 9.70617 8.00236 6.32985 12.1946 
7.19899 4.88336 4.87252 2.58811 3.9324 4.61018 5.29945 3.68918 2.48977 
2.64204 3.10007 5.29055 7.80043 4.63792 4.21337 5.08242 5.6162 5.60847 
2.81315 1.48156 6.40158 10.0848 1.22199 3.34356 2.82207 1.38087 2.39732 
-0.499678 0.747666 1.09725 2.35069 1.61513 8.18238 2.58228 3.29136 6.08633 
4.3999 1.48144 0.276923 0.59667 1.299 1.05555 8.9135 2.62764 -1.64128 
5.94813 1.89621 2.42378 1.68451 1.16377 4.08712 5.30884 0.873454 8.17115 
2.4904 0.323663 3.1449 1.205 2.9573 3.50787 6.62892 0.359964 -0.0520061 
2.0363 1.79456 0.516585 10.318 2.06697 5.08213 1.98835 3.57982 -3.56815 
1.76064 0.108235 5.18924 -1.13101 2.83404 0.00667219 15.4014 2.43405 0.942493 
-1.12217 -0.540465 4.13807 6.56627 2.20539 1.05969 28.157 -0.092566 0.285426 
3.65721 1.85107 0.788606 4.79995 -0.432019 8.02966 2.44491 2.05348 6.6773 
2.54821 2.22302 2.05953 5.81472 2.41189 2.30081 1.49697 1.64715 0.984783 
0.670114 -0.569464 3.36305 -1.20167 3.0572 0.980524 4.62978 8.20833 0.519552 
3.28265 1.97612 2.54612 2.51845 -1.4749 12.1857 1.37106 7.02088 1.17409 
1.38134 2.57062 0.347331 1.34692 -3.82454 2.69118 21.7784 0.0640559 -2.83934 
1.15333 1.48744 -1.49689 4.85962 6.78434 0.508283 3.08769 10.9977 -1.11509 
4.80059 2.4593 3.47388 1.34357 1.02362 5.40726 2.81957 0.592914 1.57941 
2.79237 2.67785 2.54922 6.89459 7.47265 0.960912 4.71 5.42968 1.9935 
4.37111 3.5669 1.10218 3.69474 2.756 3.72234 4.90939 0.225912 -0.0633843 
3.18236 4.77607 1.37119 1.19711 13.3217 6.2853 6.07763 5.85648 1.20959 
1.5304 4.66556 5.73459 8.05732 1.28913 0.201933 5.23958 13.8385 21.9214 
29.1959 1.23749 2.96578 1.308 3.93488 2.67425 2.96233 1.35056 6.44713 
8.10755 0.578227 4.21772 3.68735 11.3855 6.4946 3.06976 18.0088 14.7376 

kmax 1 252 float
0.997689 -0.64534 0.0709463 -1.22738 -0.0892659 0.00209673 -4.78107 0.324146 -0.574774 
-1.32767 -0.859101 -1.03647 -5.70057 -0.173379 -0.989262 -0.713485 -0.475909 -1.33599 
-1.09815 -0.326447 0.230282 -4.93591 -0.942643 -1.27733 -0.853722 -0.0959059 -0.58197 
-0.0360118 -0.472675 -0.00516207 -0.436299 -0.974604 -1.02323 -0.509738 -0.654482 -0.988785 
-0.0193096 -0.00319354 0.524359 0.30562 -0.50143 -0.260472 0.570903 -0.486248 -0.590517 
0.496758 -0.730654 0.793438 -0.180681 0.427928 0.35279 0.611334 0.647598 -0.552298 
1.48047 -0.0421003 0.34522 0.991031 0.411702 -0.523994 0.639516 0.482818 0.951762 
0.452789 -0.054341 1.43145 -0.662538 0.27361 0.866641 1.3884 0.978342 0.431882 
-5.00081 -0.390975 -1.98574 1.11132 0.720732 0.409001 0.320513 -0.47225 1.06808 
0.527063 -0.0986558 -1.12796 -12.8352 0.796776 -0.31322 0.25781 1.34419 -4.23014 
-0.469168 -17.1376 0.0661544 -1.63741 0.242983 -0.410638 -0.619125 -3.20495 -0.566869 
-11.4206 -2.31709 0.747122 -12.0342 0.768065 1.42836 -0.524818 -1.99468 -0.594689 
0.165711 0.209803 -0.979278 -0.243089 1.25463 0.155832 0.146792 -0.900029 -10.1172 
0.0425573 -1.39562 -1.08145 -6.55151 -0.811342 -1.64446 -0.966769 1.47488 -1.80266 
-11.8248 -1.89609 0.129226 -0.484971 -0.733081 -0.317376 5.39615 -4.42127 -1.0329 
0.904194 -1.6303 -0.170159 0.274426 -4.14408 -0.672885 -0.322136 1.73849 -0.444219 
-3.0561 -1.26459 -1.31875 -0.373507 1.51948 -1.63921 -10.819 1.14287 -4.71559 
-7.92029 -3.2391 0.825683 -3.8866 -2.1677 0.210448 -0.526287 -3.66278 -0.668398 
-2.91859 -0.454056 -2.25852 -1.18546 -5.06481 -0.305905 -0.115645 -0.490673 -2.48779 
-1.47873 1.49242 -1.23641 -1.08918 -12.8324 0.847684 -4.29057 -0.898329 -5.90845 
-1.67321 0.845722 -3.89754 -0.317491 -0.199873 -2.72328 -1.06476 -0.757495 -3.69978 
-0.284026 -1.67037 -1.13907 0.758928 -0.789103 -0.744265 -2.57146 -0.1434 0.771127 
-0.724489 -1.62599 0.829252 -1.09885 -1.65615 0.647262 1.10008 0.541549 0.144362 
-0.0416331 -0.244815 -0.568661 -0.142638 0.320297 -0.0975482 -0.138272 -0.0767018 -1.6314 
-1.57858 0.20514 -3.21586 -0.623357 -1.89524 0.249371 -3.81169 -0.122215 -1.41435 
-2.16276 0.889521 -0.287456 0.359927 -1.78353 -5.77468 -3.7863 -2.62924 -6.43387 
-2.67342 -2.32627 -0.325036 -3.14315 -2.36069 -0.275199 0.744899 -0.637934 1.48146 
-2.05788 -0.201528 0.323088 -0.498798 -0.10868 0.259815 -0.0688276 3.04942 2.12904 

hks 16 252 double
0.70395113241 0.70669220349 0.70944375764 0.7122145136 0.71501366066 0.71785075684 0.72073562789 0.72367826896 0.72668875072 
0.72977713131 0.73295337508 0.73622727903 0.73960840741 0.74310603475 0.7467290972 0.75048615208 0.66414793388 0.66714409378 
0.67011611364 0.67307655447 0.6760385068 0.67901544205 0.6820210671 0.68506918409 0.6881735572 0.69134778771 0.69460519842 
0.69795872856 0.70142083949 0.70500343204 0.70871777554 0.71257444879 0.66723613298 0.67097566567 0.67476221789 0.67859877498 
0.68248846236 0.68643454548 0.69044043264 0.69450968015 0.69864599905 0.70285326257 0.70713551342 0.71149696994 0.7159420303 
0.72047527392 0.72510145921 0.72982551718 0.49575917267 0.5007467152 0.50579128993 0.51089525415 0.51606152756 0.52129352823 
0.52659510167 0.53197044508 0.53742402886 0.54296051742 0.54858469109 0.5543013709 0.56011534762 0.5660313165 0.57205381846 
0.57818718856 0.60071010926 0.60510534858 0.6096376991 0.61430326927 0.61909812276 0.62401834445 0.6290601047 0.63421972144 
0.63949371898 0.64487888317 0.65037231201 0.65597146109 0.66167418313 0.66747876103 0.67338393366 0.67938891402 0.65645588335 
0.65904685316 0.66162070908 0.66419145778 0.66677370325 0.66938248344 0.67203310516 0.67474097997 0.67752146336 0.68038969953 
0.68336047401 0.6864480762 0.68966617373 0.69302770023 0.69654475813 0.70022853747 0.59293461238 0.59518159314 0.59750134118 
0.59990301493 0.6023960693 0.60499018956 0.60769521674 0.61052106525 0.61347763374 0.61657471071 0.6198218769 0.6232284065 
0.62680316974 0.63055453945 0.63449030387 0.63861758837 0.60696933659 0.61249888819 0.61813502027 0.6238721753 0.62970468749 
0.63562686393 0.64163307128 0.64771782639 0.6538758889 0.660102354 0.66639274288 0.67274308869 0.6791500158 0.68561080992 
0.69212347722 0.69868679061 0.53263012102 0.53506480237 0.5377120243 0.54057906323 0.54367254932 0.54699837456 0.55056160868 
0.55436642571 0.55841604374 0.56271268014 0.56725752406 0.57205072752 0.57709141567 0.58237771618 0.58790680712 0.59367498181 
0.59800395139 0.59713333003 0.59652139812 0.59617899249 0.59611647315 0.59634362812 0.59686957495 0.59770266119 0.59885036688 
0.60031921202 0.60211467193 0.60424110368 0.60670168597 0.609498375 0.61263187795 0.61610164547 0.56292572518 0.56774670362 
0.57259813231 0.57748451849 0.58241091883 0.58738286939 0.59240630895 0.59748749768 0.60263293255 0.60784926156 0.61314319831 
0.61852143897 0.6239905832 0.6295570607 0.6352270648 0.64100649415 0.52460478996 0.52848387762 0.53247607999 0.5365900412 
0.54083409379 0.54521616906 0.54974371425 0.55442361794 0.5592621448 0.56426488073 0.56943668925 0.57478167977 0.58030318824 
0.58600377039 0.59188520729 0.59794852297 0.56303951171 0.56509795541 0.56724961471 0.56950497099 0.57187460377 0.57436911038 
0.57699902113 0.57977471074 0.58270630706 0.58580359846 0.58907594159 0.59253217127 0.59618051477 0.60002851224 0.60408294558 
0.60834977745 0.53102393659 0.53007060391 0.52935460432 0.52889311582 0.52870288845 0.52880007147 0.52920003296 0.52991717613 
0.53096475698 0.53235470838 0.53409747604 0.53620187146 0.53867494697 0.54152189703 0.5447459895 0.54834852924 0.4862020709 
0.48634951789 0.48677406347 0.48748046629 0.48847327924 0.48975681545 0.49133510114 0.49321181742 0.49539023321 0.49787313239 
0.50066273827 0.5037606388 0.50716771589 0.51088408209 0.51490902754 0.5192409796 0.45045237549 0.44904941877 0.44778627633 
0.44668031149 0.44574946034 0.44501206379 0.44448667557 0.44419184978 0.44414591243 0.44436672236 0.44487142763 0.4456762236 
0.44679611938 0.44824471915 0.45003402415 0.45217426095 0.5129312277 0.5117224559 0.51067298813 0.5097991803 0.50911805084 
0.50864708905 0.50840403773 0.50840665511 0.50867246206 0.50921848106 0.51006097406 0.51121518635 0.51269510363 0.51451322884 
0.51668038496 0.51920554896 0.44258378858 0.44439920642 0.44636808974 0.4485015652 0.45081021174 0.45330398967 0.45599217935 
0.45888332907 0.46198521181 0.46530479029 0.46884818979 0.47262067833 0.47662665362 0.48086963642 0.48535227011 0.4900763261 
0.32864296566 0.32977983763 0.3310488112 0.33246033161 0.3340246614 0.33575180434 0.33765142855 0.3397327895 0.34200465391 
0.3444752257 0.34715207541 0.35004207428 0.35315133461 0.35648515765 0.36004799034 0.36384339193 0.45477462561 0.45327921848 
0.4520005408 0.45095245569 0.45014872356 0.44960288775 0.44932814632 0.44933721282 0.44964216987 0.45025431952 0.45118403511 
0.45244061924 0.45403217236 0.45596547631 0.45824589655 0.46087730594 0.42615723263 0.42704426418 0.42803007919 0.42912912698 
0.43035629928 0.43172680974 0.43325605705 0.43495947302 0.4368523576 0.43894970377 0.44126601588 0.44381512529 0.4466100079 
0.4496626083 0.45298367507 0.45658261183 0.41149071932 0.41363687402 0.41594584156 0.41842485452 0.42108089158 0.42392062909 
0.42695039212 0.43017610558 0.43360324626 0.43723679642 0.44108120006 0.44514032277 0.44941741602 0.45391508695 0.4586352743 
0.4635792313 0.36084636993 0.36035623564 0.36001619137 0.35983896517 0.35983695772 0.36002217754 0.36040617793 0.36099999533 
0.36181408923 0.36285828358 0.36414171003 0.36567275356 0.36745900098 0.36950719322 0.3718231821 0.3744118926 0.32083803711 
0.31971078291 0.3186536079 0.31768195693 0.31681141293 0.31605759094 0.31543602869 0.31496207436 0.31465077236 0.31451674807 
0.31457409308 0.31483625229 0.3153159148 0.31602491044 0.31697411386 0.31817335821 0.37296081077 0.37232062041 0.37176570286 
0.37130958001 0.37096598808 0.37074880501 0.37067197158 0.3707494062 0.37099491344 0.37142208694 0.37204420753 0.37287413766 
0.37392421373 0.37520613798 0.37673087178 0.37850853253 0.37128206706 0.36887611396 0.36659299005 0.36443538687 0.36240697966 
0.36051247678 0.35875764053 0.35714927909 0.35569520942 0.35440419205 0.35328583896 0.35235049659 0.35160910631 0.35107304535 