# vtk DataFile Version 5.1
vtk output
ASCII
DATASET POLYDATA
POINTS 252 float
-0.348408 -0.19018 -0.017815 0.136332 -0.208948 -0.102473 -0.390087 -0.19536 0.028516 
-0.006169 -0.183849 -0.093391 -0.386223 -0.190046 -0.073003 0.123187 -0.213676 -0.052867 
-0.3828 -0.15522 -0.114344 0.038149 -0.183382 -0.149521 -0.33173 -0.146386 -0.109374 
-0.432854 -0.133659 -0.038794 0.135938 -0.173507 -0.176827 -0.41827 -0.175033 0.018859 
-0.412966 -0.191707 0.132808 0.221559 -0.191248 -0.061698 -0.263825 -0.14518 -0.121081 
-0.350398 -0.183275 0.071338 0.229037 -0.207548 0.040175 -0.480253 -0.17838 0.140564 
0.133843 -0.197737 0.012554 0.078061 -0.134556 -0.208033 -0.093706 -0.147538 -0.128218 
-0.132751 -0.149577 -0.07921 -0.437355 -0.179601 0.110454 0.164043 -0.151218 -0.192961 
-0.327176 -0.150976 -0.068296 0.056229 -0.080943 -0.204657 -0.38825 -0.115175 -0.00674 
-0.338239 -0.140641 0.038555 -0.398675 -0.16332 0.172602 -0.103397 -0.135483 -0.026216 
-0.2934 -0.12609 -0.07209 0.289741 -0.188444 0.03141 -0.218328 -0.097389 -0.157871 
-0.306361 -0.119184 -0.156661 -0.370633 -0.093627 -0.01287 -0.544871 -0.132592 0.130458 
-0.287396 -0.122252 0.014835 0.05307 -0.182373 -0.062298 -0.042463 -0.122525 -0.154735 
-0.416431 -0.089879 -0.086647 -0.496938 -0.145147 0.106558 0.176153 -0.099189 -0.174216 
0.221047 -0.145032 -0.099653 -0.30928 -0.057022 -0.171457 -0.41779 -0.121196 0.122552 
-0.416608 -0.119818 0.001112 0.303106 -0.156334 0.003281 0.248332 -0.16371 0.117163 
-0.474104 -0.151513 0.19046 0.435316 -0.188799 0.077375 -0.228467 -0.121705 -0.01252 
0.42152 -0.131243 0.049193 -0.490566 -0.099798 0.180802 -0.377155 -0.026852 -0.153831 
-0.015398 -0.112438 0.006562 0.550766 -0.15493 0.111338 0.477628 -0.188748 0.087739 
0.362684 -0.167244 0.082127 0.371321 -0.187741 0.110882 -0.447602 -0.101166 0.151851 
-0.40719 -0.133697 0.168054 -0.226802 -0.04764 -0.163479 -0.565923 -0.074246 0.098282 
0.088426 -0.047065 -0.189228 0.312063 -0.160895 0.162992 -0.450932 -0.128312 0.10237 
-0.105437 -0.066096 -0.149325 -0.643755 -0.053015 0.116456 0.183997 -0.09296 0.045997 
0.550775 -0.148886 0.045 0.127579 -0.144844 0.039961 -0.561517 -0.110062 0.166756 
0.429135 -0.165596 0.14769 0.247788 -0.099967 -0.058939 0.629841 -0.137292 0.075751 
-0.283232 -0.051035 0.041013 0.090189 -0.083093 -0.000754 -0.11294 -0.073095 0.028011 
0.255893 -0.099429 0.123588 0.788682 -0.177756 0.159744 0.793136 -0.148284 0.127487 
-0.494512 -0.016969 -0.05293 0.196593 -0.098728 -0.114873 0.767771 -0.126533 0.204695 
0.661041 -0.104387 0.046006 0.355363 -0.133211 0.172761 -0.232204 -0.072849 0.037265 
0.519991 -0.121943 0.036982 0.623812 -0.11219 0.114703 -0.133262 -0.016079 -0.129208 
0.182908 -0.063075 -0.007649 0.488677 -0.143321 0.146413 -0.585703 -0.045692 0.127713 
0.289043 -0.086611 0.043585 0.730968 -0.118653 0.066181 -0.384853 -0.028553 -0.034416 
-0.436398 -0.008115 -0.06253 0.3582 -0.122051 0.081549 0.500089 -0.078699 0.072379 
-0.503413 0.007449 -0.090168 0.200507 -0.004461 -0.126295 0.348866 -0.092202 0.116919 
0.187356 -0.059514 -0.049432 -0.661777 -0.038528 0.138665 0.711551 -0.12378 0.114441 
0.405559 -0.106337 0.124606 -0.616575 -0.023039 0.101445 -0.607117 0.071295 -0.066984 
0.095386 -0.001856 -0.187908 -0.41907 -0.022449 -0.112704 -0.589522 0.005257 -0.081753 
0.52676 -0.085447 0.108553 -0.017944 -0.0319 0.024302 -0.00245 -0.038864 -0.155953 
0.008756 0.035379 -0.145144 0.145354 -0.050213 -0.162911 -0.472459 -0.025197 0.007801 
-0.658344 -0.003576 0.079091 0.591038 -0.08929 0.056234 -0.426475 0.045078 -0.088204 
-0.608974 -0.04457 0.149016 -0.601102 -0.015873 0.006291 -0.586701 -0.003045 0.047476 
-0.361864 0.060424 -0.009359 0.762711 -0.092558 0.039524 0.675143 -0.07791 0.057681 
-0.448357 -0.003424 0.055585 0.706731 -0.099876 0.134433 0.732991 -0.087129 0.144579 
-0.385672 0.019255 -0.000944 -0.706553 0.001352 0.099281 -0.671818 0.028901 0.0875 
0.138996 -0.03767 -0.004534 0.791577 -0.112042 0.202116 -0.349356 0.006124 0.001847 
-0.648424 -0.005931 0.137098 0.014009 0.01582 0.003025 0.310905 0.042111 -0.106303 
0.62655 -0.089016 0.096786 0.254819 -0.023059 -0.088444 0.744582 -0.064186 0.100187 
-0.094568 0.024424 -0.13695 -0.565052 0.033095 0.066244 -0.138679 -0.00051 0.03916 
-0.300775 0.021849 -0.150343 -0.625205 0.038895 -0.003206 0.196071 0.047498 -0.135075 
-0.603989 0.081841 0.027848 -0.308658 0.050012 0.033188 -0.26512 -0.001893 0.0453 
-0.535079 0.062569 -0.103903 0.117468 0.052169 -0.16215 -0.436069 0.019684 0.028394 
0.00818 0.078719 -0.093405 -0.467466 0.061374 0.053561 0.020826 0.071488 -0.046924 
0.2243 -0.033124 -0.017068 -0.354996 0.111712 -0.130617 0.333472 0.01482 -0.073301 
-0.414811 0.08733 -0.056602 0.086797 0.032156 0.004516 0.230254 0.028386 0.034317 
-0.239372 0.089413 -0.151639 -0.465057 0.084787 -0.052141 -0.445601 0.069952 -0.004396 
0.414451 0.074274 -0.069057 -0.091119 0.057952 -0.121814 -0.072309 0.063016 -0.007191 
0.318031 0.008326 -0.011624 -0.195718 0.03563 0.047444 -0.543464 0.113248 -0.050985 
0.391549 0.053561 0.023649 0.434697 0.055318 -0.033911 -0.092618 0.086699 -0.071833 
-0.238977 0.061652 0.057978 0.113513 0.077633 -0.111918 -0.201292 0.083245 0.026352 
-0.365303 0.147632 -0.068703 -0.311943 0.173697 -0.094798 -0.160262 0.11477 -0.095135 
0.310504 0.089168 -0.10429 -0.253402 0.147131 -0.121355 0.086822 0.073385 -0.02504 
-0.258243 0.121397 0.011692 0.223471 0.079089 0.029608 0.195134 0.109214 -0.026281 
0.273316 0.109373 -0.084263 -0.271836 0.111109 0.03938 -0.197107 0.132321 -0.061814 
-0.327237 0.125213 0.068315 -0.273657 0.107673 0.092046 0.452754 0.119587 0.02695 
0.368982 0.099095 0.01957 -0.315135 0.119409 0.15783 -0.312706 0.101714 0.185049 
0.522922 0.111201 -0.067456 0.463664 0.09723 0.021289 0.310636 0.124535 -0.002768 
-0.240643 0.122091 0.125374 -0.365418 0.131813 -0.027227 -0.414787 0.135441 0.200149 
-0.241535 0.148615 0.055787 -0.28066 0.172849 -0.085972 -0.503936 0.183057 0.111733 
-0.344829 0.197185 -0.047251 0.509046 0.109362 -0.013219 0.429656 0.158747 -0.029131 
-0.342136 0.157489 0.053625 -0.452985 0.154608 0.158107 -0.282907 0.1314 0.209591 
-0.420816 0.181281 0.136599 -0.554832 0.217874 0.039225 0.441661 0.127127 -0.069747 
-0.255221 0.180724 -0.015018 0.556239 0.153947 0.015577 0.625423 0.131695 -0.041911 
-0.312091 0.18751 0.074871 -0.258259 0.181213 0.055477 0.644638 0.163575 -0.07134 
-0.279432 0.208669 -0.010834 -0.34142 0.199994 0.010977 -0.269044 0.169736 0.164894 
-0.450071 0.183779 0.195178 -0.526599 0.182922 0.146562 -0.524382 0.21851 0.042518 
-0.323399 0.16786 0.145044 -0.342199 0.155759 0.224356 -0.302421 0.187358 0.180835 
0.582272 0.180018 -0.091103 -0.554895 0.204174 0.111824 -0.410819 0.20306 0.188447 
-0.506766 0.21932 0.136138 0.689431 0.17479 -0.016852 0.551602 0.214581 -0.063595 
-0.542513 0.222363 0.143654 0.777388 0.185673 -0.009647 0.51915 0.205796 -0.031669 
-0.548592 0.26564 0.061066 0.538934 0.181137 0.010266 0.836771 0.203164 -0.075725 
0.68468 0.225555 -0.057089 0.71465 0.207267 0.011138 0.771964 0.208854 -0.060646 
0.642294 0.224539 -0.020718 0.836513 0.18134 0.104078 0.77255 0.208641 0.029278 
0.835036 0.18973 0.023621 0.862811 0.17986 0.096386 0.865056 0.253453 0.065824 
0.824464 0.240215 -0.048978 0.827718 0.247119 0.058523 0.755588 0.240945 -0.020591 

POLYGONS 501 1500
OFFSETS vtktypeint64
0 3 6 9 12 15 18 21 24 
27 30 33 36 39 42 45 48 51 
54 57 60 63 66 69 72 75 78 
81 84 87 90 93 96 99 102 105 
108 111 114 117 120 123 126 129 132 
135 138 141 144 147 150 153 156 159 
162 165 168 171 174 177 180 183 186 
189 192 195 198 201 204 207 210 213 
216 219 222 225 228 231 234 237 240 
243 246 249 252 255 258 261 264 267 
270 273 276 279 282 285 288 291 294 
297 300 303 306 309 312 315 318 321 
324 327 330 333 336 339 342 345 348 
351 354 357 360 363 366 369 372 375 
378 381 384 387 390 393 396 399 402 
405 408 411 414 417 420 423 426 429 
432 435 438 441 444 447 450 453 456 
459 462 465 468 471 474 477 480 483 
486 489 492 495 498 501 504 507 510 
513 516 519 522 525 528 531 534 537 
540 543 546 549 552 555 558 561 564 
567 570 573 576 579 582 585 588 591 
594 597 600 603 606 609 612 615 618 
621 624 627 630 633 636 639 642 645 
648 651 654 657 660 663 666 669 672 
675 678 681 684 687 690 693 696 699 
702 705 708 711 714 717 720 723 726 
729 732 735 738 741 744 747 750 753 
756 759 762 765 768 771 774 777 780 
783 786 789 792 795 798 801 804 807 
810 813 816 819 822 825 828 831 834 
837 840 843 846 849 852 855 858 861 
864 867 870 873 876 879 882 885 888 
891 894 897 900 903 906 909 912 915 
918 921 924 927 930 933 936 939 942 
945 948 951 954 957 960 963 966 969 
972 975 978 981 984 987 990 993 996 
999 1002 1005 1008 1011 1014 1017 1020 1023 
1026 1029 1032 1035 1038 1041 1044 1047 1050 
1053 1056 1059 1062 1065 1068 1071 1074 1077 
1080 1083 1086 1089 1092 1095 1098 1101 1104 
1107 1110 1113 1116 1119 1122 1125 1128 1131 
1134 1137 1140 1143 1146 1149 1152 1155 1158 
1161 1164 1167 1170 1173 1176 1179 1182 1185 
1188 1191 1194 1197 1200 1203 1206 1209 1212 
1215 1218 1221 1224 1227 1230 1233 1236 1239 
1242 1245 1248 1251 1254 1257 1260 1263 1266 
1269 1272 1275 1278 1281 1284 1287 1290 1293 
1296 1299 1302 1305 1308 1311 1314 1317 1320 
1323 1326 1329 1332 1335 1338 1341 1344 1347 
1350 1353 1356 1359 1362 1365 1368 1371 1374 
1377 1380 1383 1386 1389 1392 1395 1398 1401 
1404 1407 1410 1413 1416 1419 1422 1425 1428 
1431 1434 1437 1440 1443 1446 1449 1452 1455 
1458 1461 1464 1467 1470 1473 1476 1479 1482 
1485 1488 1491 1494 1497 1500 
CONNECTIVITY vtktypeint64
92 106 135 194 190 198 227 210 230 
85 105 101 70 47 78 92 62 106 
67 103 130 83 128 127 104 127 88 
104 83 127 88 127 138 120 92 135 
103 120 135 130 103 135 193 190 194 
194 198 209 209 198 221 194 208 193 
209 221 227 208 200 223 223 200 222 
223 222 234 226 227 230 222 226 230 
222 230 234 14 33 32 21 32 20 
42 23 41 38 7 20 7 38 19 
1 7 10 162 178 181 144 157 162 
162 157 178 179 162 181 162 89 144 
63 113 114 108 63 114 108 114 151 
146 115 151 115 108 151 115 146 100 
43 53 144 61 43 144 25 113 63 
32 43 61 25 38 113 19 25 63 
41 63 115 41 23 63 23 19 63 
32 33 43 25 19 38 10 7 19 
23 10 19 73 42 82 6 39 109 
21 14 32 13 23 42 8 6 33 
8 4 6 14 8 33 7 3 20 
7 1 3 13 1 23 1 10 23 
236 243 233 240 233 243 242 240 251 
249 242 251 239 242 249 212 236 233 
240 228 233 218 228 240 242 218 240 
242 232 218 235 242 239 246 235 239 
228 212 233 195 212 228 218 195 228 
202 178 204 181 178 202 188 181 202 
179 181 188 212 186 206 180 186 212 
165 180 212 96 39 95 39 34 95 
39 9 34 24 8 30 8 14 30 
42 73 46 46 13 42 6 4 9 
58 56 72 64 58 72 208 194 200 
17 12 48 40 17 35 17 71 35 
71 17 48 64 72 85 60 44 59 
28 60 52 52 60 59 59 65 92 
48 52 71 35 71 103 104 79 83 
72 91 85 64 85 78 78 47 64 
52 59 92 52 92 120 71 52 120 
103 71 120 80 140 133 83 133 128 
140 128 133 194 209 226 200 194 226 
209 227 226 222 200 226 48 12 28 
48 28 52 83 80 133 83 79 80 
21 3 29 29 3 37 3 5 37 
1 5 3 16 1 13 5 1 16 
249 251 250 248 249 250 239 249 248 
238 241 243 243 241 251 236 238 243 
232 235 241 232 242 235 219 204 220 
202 204 219 213 202 219 206 197 192 
205 215 214 214 215 232 186 197 206 
39 96 109 6 9 39 14 21 30 
20 3 21 240 243 251 212 206 236 
215 195 218 232 215 218 185 184 197 
184 192 197 171 172 196 172 205 196 
183 176 188 176 167 188 182 184 185 
182 160 184 171 168 172 107 147 170 
145 147 107 164 163 170 164 129 123 
136 155 167 136 182 155 136 160 182 
168 158 172 110 145 107 110 121 145 
132 90 156 168 139 158 156 139 168 
110 81 121 81 110 99 81 116 121 
81 95 152 95 81 96 90 102 156 
73 102 93 123 199 177 167 155 153 
82 115 102 73 82 102 156 102 139 
143 112 136 143 77 112 112 76 136 
136 132 160 116 81 152 95 34 134 
76 132 136 54 76 112 199 207 220 
216 217 219 132 156 161 160 132 161 
123 134 148 134 149 148 95 134 129 
134 123 129 152 95 129 121 122 145 
161 168 171 168 161 156 143 136 167 
143 167 169 169 167 176 199 123 148 
152 129 164 152 164 154 154 164 170 
147 154 170 161 171 192 184 161 192 
160 161 184 174 176 183 191 171 196 
192 171 191 187 183 201 203 229 211 
207 216 220 132 76 90 76 70 68 
76 68 90 93 102 90 29 77 50 
77 29 54 54 37 76 37 70 76 
9 45 34 24 26 27 36 30 50 
30 21 50 21 29 50 37 54 29 
37 18 70 31 13 46 4 2 11 
4 0 2 4 11 9 177 199 204 
178 177 204 183 202 213 186 185 197 
165 212 195 172 195 205 195 172 165 
195 215 205 159 123 177 183 188 202 
167 179 188 167 173 179 167 153 173 
175 155 182 175 182 185 150 107 170 
150 170 163 99 163 119 99 150 163 
164 123 159 159 163 164 119 163 159 
158 165 172 99 110 150 96 99 119 
96 81 99 96 119 109 139 102 100 
102 115 100 186 175 185 157 119 159 
110 107 150 78 85 101 85 91 105 
105 91 111 72 55 91 91 88 111 
91 55 88 79 104 94 35 67 62 
103 67 35 40 35 62 65 62 92 
65 40 62 38 66 113 61 144 89 
114 113 141 141 89 162 146 151 175 
166 141 162 166 162 179 38 20 66 
33 6 43 43 6 53 42 41 82 
82 41 115 20 32 66 66 32 61 
6 109 53 113 66 89 66 61 89 
144 53 119 109 119 53 139 100 137 
113 89 141 144 119 157 165 158 137 
139 137 158 137 146 180 137 100 146 
151 153 175 175 153 155 114 141 153 
151 114 153 141 166 153 166 173 153 
173 166 179 165 137 180 180 146 186 
146 175 186 157 159 177 178 157 177 
44 65 59 47 58 64 16 58 47 
49 56 58 72 56 55 22 40 65 
22 17 40 27 44 60 60 28 27 
12 15 28 28 15 27 12 17 22 
12 2 15 22 2 12 229 223 234 
230 231 234 210 231 230 223 203 208 
210 203 231 208 203 210 227 225 210 
45 65 44 2 22 11 87 51 98 
118 87 98 69 87 118 84 69 118 
36 50 86 86 50 77 97 46 93 
69 51 87 11 65 45 15 0 27 
2 0 15 245 244 250 235 246 244 
246 247 244 211 234 237 203 211 224 
46 73 93 9 11 45 16 13 31 
0 24 27 245 235 244 247 246 248 
148 174 187 98 97 105 51 97 98 
56 74 55 74 104 88 55 74 88 
74 94 104 94 124 80 79 94 80 
27 26 44 57 46 97 49 58 57 
51 57 97 51 49 57 56 49 69 
56 69 74 217 213 219 232 241 238 
246 239 248 241 245 251 245 250 251 
201 183 213 204 199 220 191 214 238 
196 205 214 196 214 191 191 238 206 
236 206 238 206 192 191 201 213 217 
219 220 216 241 235 245 214 232 238 
207 193 225 237 224 211 63 108 115 
26 24 30 34 30 36 45 26 34 
5 16 18 37 5 18 4 8 0 
0 8 24 65 11 22 18 47 70 
18 16 47 57 31 46 58 31 57 
31 58 16 250 247 248 244 247 250 
231 237 234 211 229 234 231 224 237 
231 203 224 198 201 217 229 203 223 
189 193 207 69 84 74 74 84 94 
44 26 45 69 49 51 193 208 210 
193 210 225 221 225 227 216 225 221 
216 207 225 26 30 34 221 217 216 
221 198 217 189 190 193 106 131 135 
67 130 117 105 111 98 138 98 111 
118 98 138 111 88 138 125 138 140 
127 128 138 140 138 128 140 80 124 
62 67 117 106 62 117 68 70 78 
101 93 78 97 93 101 97 101 105 
117 130 131 106 117 131 118 138 125 
190 187 198 187 207 199 187 189 207 
148 187 199 122 142 147 142 154 147 
148 149 174 174 149 169 34 75 134 
140 124 125 134 75 149 126 116 152 
145 122 147 169 176 174 187 201 198 
190 189 187 34 36 75 68 78 93 
68 93 90 77 54 112 86 77 143 
36 86 75 86 149 75 121 116 122 
116 126 122 142 122 126 94 84 124 
124 84 125 84 118 125 86 143 149 
149 143 169 126 152 154 142 126 154 
174 183 187 131 130 135 
POINT_DATA 252
SCALARS k float
LOOKUP_TABLE default
0.248781 0.144065 0.0252723 -0.034906 0.710415 0.0503937 0.318393 0.114414 -0.396125 
0.347099 0.143848 -0.196563 0.23707 0.0222881 0.027348 0.408408 0.0757169 0.375546 
0.175643 0.371296 -0.190058 -0.229514 -0.627982 0.791667 -1.09258 0.313025 -1.03155 
0.383047 0.964524 -0.0496657 -0.413163 -0.0560083 -0.127584 0.179382 -1.79064 0.029794 
0.675083 -0.390058 -0.148269 -0.674894 0.0924457 0.319191 -0.127513 0.163496 -0.279217 
-0.755744 -0.062053 -0.0457812 0.636796 0.265875 -0.175319 0.297717 0.238933 0.334088 
0.0871711 0.0605906 0.247101 -0.943275 -0.324605 0.0978699 0.328097 0.0163021 -0.358091 
-0.290348 0.608762 -1.87141 -0.182604 -0.00624657 -0.221148 0.131945 0.0828396 0.099437 
0.110159 0.154629 -0.308033 0.154878 -0.801943 -0.0252899 0.399806 2.41894 0.0978463 
-0.36841 -0.176488 0.962312 -0.169165 0.511725 -0.00562561 0.234509 -0.715511 0.166083 
-2.11211 0.00758618 -0.223046 -0.179937 -0.180673 -0.654902 -1.59305 -1.14869 0.337366 
-0.0821024 -0.383205 0.0626967 -1.06293 0.423546 -0.639233 -0.444227 -0.0671671 0.867991 
0.319052 0.141001 0.9744 0.124885 0.0469439 -0.0855815 -0.0968523 -0.652681 0.446758 
0.389453 -0.194394 -0.950699 -0.209498 0.706376 0.697278 -0.636972 2.03762 0.0631489 
1.50691 -0.682183 -0.0477014 -0.589249 2.68738 2.28542 -0.135877 2.3288 -0.31568 
0.538966 -0.22417 0.0690857 -0.306012 0.145465 0.521582 -0.22374 0.489398 -0.0385432 
-0.194311 0.535849 -0.24228 1.08268 0.0907182 -0.0678619 0.784471 0.28831 -1.3395 
-0.114991 0.791671 -0.209255 -0.385958 0.427832 0.00527179 -1.108 -0.152937 0.164604 
0.13727 -0.624107 -0.449113 -0.20263 -0.161072 -0.12528 -0.0289046 -0.0592046 0.780107 
0.170686 0.0269244 -0.279264 0.304519 -0.140842 -0.0350986 -0.435975 0.129662 -0.00904292 
0.00688219 0.22684 -0.131161 -0.829272 0.221072 0.0966346 -0.028019 -3.10897 -0.0123409 
0.388355 -0.0325824 0.0609586 -0.130169 -0.835909 0.437061 -0.157192 0.0201937 -0.00721902 
0.74396 -0.362571 0.41186 0.0730491 -0.50162 -1.10435 0.580397 -0.14219 -0.381209 
-0.628169 -0.136204 1.07271 -0.381031 2.00914 -0.421542 0.240062 0.00392103 0.332513 
-0.186296 -0.00887656 -0.13839 0.550368 0.432953 0.0184172 0.170657 0.374338 1.39276 
-2.44596 0.560382 0.468182 0.37025 0.479081 0.0895531 -0.719979 -0.490503 0.421341 
0.782909 -0.358024 0.156942 2.5723 -0.0387448 2.53656 0.0102367 -0.452988 -0.786855 
0.0148643 1.82475 -0.91452 -0.26144 1.98687 1.86628 0.557384 0.19586 -0.259764 

FIELD FieldData 7
h 1 252 float
4.79556 4.4395 6.52829 -0.358786 4.62696 4.14925 4.32909 4.40168 1.97769 
2.2915 3.70425 2.26884 1.14601 5.55539 1.99897 8.40147 4.09064 1.12061 
5.59334 4.80824 3.91104 -0.961972 2.02941 5.46246 0.0568345 1.57685 -2.75332 
1.14891 0.825895 3.45035 1.31895 3.15514 3.84649 4.59314 -0.931838 0.142141 
4.2026 2.71021 2.62181 -0.347261 1.4871 -1.07538 2.338 4.06342 -1.15036 
0.513939 0.757474 5.05388 17.9538 2.29407 2.81362 -0.784051 -0.803993 4.16578 
2.8032 2.07765 3.52466 1.17186 1.446 0.129382 -2.6184 2.31863 -0.0665494 
1.23549 7.9793 -12.5411 2.28299 2.03709 -0.891496 3.81423 1.50155 1.60036 
3.51271 -0.000514388 0.733522 0.190955 0.387073 2.05183 0.138179 5.40722 6.44756 
-0.309316 0.805111 8.94337 6.8929 -0.314548 1.28556 5.88637 4.34316 1.36351 
-2.53004 1.57152 -0.225928 0.925369 1.5621 -0.267855 1.35796 0.00695068 2.43449 
2.9272 1.12167 1.30035 -1.19388 0.294848 0.650191 0.632565 -0.129282 2.42759 
1.30156 4.05464 2.91968 3.09749 1.33907 1.56529 0.524924 1.74739 3.24608 
3.65859 5.44431 4.25874 -1.34585 4.38603 5.86843 -0.928329 28.2031 2.84088 
2.60094 3.4056 2.07994 -2.50836 0.784865 -1.42971 0.0558631 1.46267 -2.04998 
-2.64748 0.461896 1.64988 1.60821 0.193325 2.7651 1.3676 0.85653 1.12386 
4.1425 22.4667 0.769785 3.58422 -0.791028 0.0188547 2.05026 1.07038 -0.977445 
3.53627 3.17047 2.34287 -0.173369 3.97746 -0.181864 3.4059 0.804339 0.902959 
3.24668 2.05871 1.03568 2.11655 1.15939 0.915815 -0.609098 1.52428 1.3352 
1.4865 4.5157 4.43296 1.96794 5.97045 2.51874 3.82791 4.2768 2.83238 
1.19593 4.0413 2.14611 1.62986 2.45033 8.63262 5.00254 -2.17163 -0.840093 
-1.33186 -1.86871 2.81933 1.14779 -0.781427 -2.45114 4.93106 6.08726 7.54345 
1.3318 -1.46027 0.118186 0.564065 2.43247 1.14507 5.15252 4.07867 11.1184 
-2.03398 -2.10338 8.67033 -0.978606 -1.24286 1.22814 3.43533 8.50185 2.53304 
3.21097 3.80238 4.19988 4.65745 3.59934 -0.500134 29.9886 -0.387401 -1.60595 
0.746631 20.0355 -0.735291 3.12587 -0.998103 -0.968686 0.750284 0.817442 5.55516 
0.0545724 0.979134 11.3036 -1.21203 4.11544 -0.0449959 7.24264 2.08006 6.65464 
6.51807 7.61952 0.253886 1.21899 8.4107 14.5031 5.22816 1.70405 5.92469 

kmin 1 252 float
8.99131 7.95907 11.5869 0.722116 7.47276 7.87448 6.98703 7.46627 3.37231 
3.24331 6.44334 3.35878 3.57173 10.3146 2.95305 16.8469 7.67973 3.03657 
11.2477 7.86451 7.02873 0.661864 3.03033 9.48239 1.87317 2.11039 -1.20699 
2.37255 4.80038 7.3313 3.17387 5.76339 6.612 7.83396 0.0768671 1.81771 
8.27808 5.79757 4.28209 2.70898 1.98898 1.62053 4.46768 7.00888 1.66317 
2.90595 1.91936 10.3853 31.5045 4.96024 6.08183 0.388268 0.32855 6.98268 
5.96395 4.01681 6.81985 2.59167 3.36983 4.86528 -1.03912 3.61264 1.06497 
2.10774 15.0816 -2.90433 3.70948 3.55075 -0.369114 7.89273 3.53533 2.2582 
6.74255 2.05965 1.60586 0.825897 1.59192 4.45087 0.773841 12.0797 11.3032 
2.60214 2.7662 19.5804 15.1323 0.952899 2.33432 13.1996 7.87179 2.18904 
-0.629069 3.50415 1.22424 2.79421 3.79498 0.484732 2.06327 1.78075 5.27965 
5.26423 2.13222 2.77567 0.746936 0.937618 1.36639 1.88424 0.957456 5.59182 
2.29337 6.27219 6.02653 6.10384 3.30606 2.38729 1.45168 3.22706 7.24749 
6.40955 11.9084 7.29735 -0.981014 10.0775 13.4226 0.727881 56.0068 6.3742 
4.87637 5.49627 4.68381 -0.187836 1.74634 -0.884738 1.05815 2.58228 0.12592 
-1.22246 1.66043 3.79215 3.40526 1.1213 5.82591 2.3563 4.24962 2.54991 
7.26571 41.294 2.34329 10.1889 0.5692 0.399074 3.86696 2.36119 0.581438 
7.50099 5.15749 5.63402 0.973089 6.8537 0.318365 6.06961 2.4423 2.14042 
6.08819 3.85853 1.59088 5.39521 2.22979 2.29655 1.8871 3.4141 3.06431 
3.0351 9.48789 9.50236 3.77174 13.0242 5.26641 5.43826 7.45935 5.41231 
3.29258 6.6895 4.82593 4.4701 5.5542 18.0923 10.6792 -0.409459 -0.262744 
0.765842 0.41069 5.77084 2.78777 1.82784 0.502114 10.2025 12.6725 15.5039 
6.40147 4.48752 1.90524 3.44326 4.73319 1.63923 8.30421 8.69131 22.8488 
2.47263 0.0452694 13.4622 0.935547 -0.872457 2.67254 8.00794 17.7729 5.23496 
5.77339 6.78709 8.75594 8.28496 4.74174 0.753481 53.8759 0.498351 0.00375605 
2.00679 32.4789 0.338081 6.06318 -0.938954 -0.219226 1.25629 2.0606 11.1002 
0.524399 2.69061 22.6713 -0.804633 8.17978 0.62053 14.1363 4.26013 13.6608 
13.2682 19.9116 1.34802 2.84586 14.0397 25.4585 10.7163 3.42094 12.0003 

kmax 1 252 float
0.599823 0.919926 1.46971 -1.43969 1.78116 0.424026 1.67116 1.33709 0.583073 
1.3397 0.965166 1.17891 -1.27971 0.796179 1.04489 -0.0440027 0.501549 -0.795355 
-0.0609991 1.75196 0.793351 -2.58581 1.0285 1.44254 -1.7595 1.04331 -4.29964 
-0.0747312 -3.14859 -0.430593 -0.535977 0.546888 1.08098 1.35231 -1.94054 -1.53343 
0.127111 -0.377148 0.961533 -3.4035 0.985221 -3.7713 0.208309 1.11797 -3.96388 
-1.87807 -0.404408 -0.277492 4.40312 -0.372101 -0.454586 -1.95637 -1.93654 1.34889 
-0.357556 0.13848 0.229467 -0.247957 -0.477822 -4.60651 -4.19768 1.02463 -1.19807 
0.36324 0.877011 -22.1778 0.85649 0.52342 -1.41388 -0.264264 -0.532235 0.94253 
0.282862 -2.06068 -0.138821 -0.443986 -0.817774 -0.347216 -0.497482 -1.26529 1.59195 
-3.22077 -1.15598 -1.69363 -1.34647 -1.582 0.236806 -1.42689 0.814528 0.537984 
-4.431 -0.361104 -1.6761 -0.943468 -0.670778 -1.02044 0.652648 -1.76685 -0.410664 
0.590162 0.111116 -0.174967 -3.1347 -0.347921 -0.0660094 -0.619113 -1.21602 -0.736647 
0.309752 1.83708 -0.187162 0.0911468 -0.627913 0.743298 -0.401834 0.267713 -0.755325 
0.907627 -1.0198 1.22014 -1.71069 -1.30542 -1.68578 -2.58454 0.399364 -0.692441 
0.325509 1.31492 -0.523938 -4.82889 -0.176612 -1.97468 -0.946423 0.343057 -4.22588 
-4.07249 -0.736635 -0.492393 -0.188841 -0.73465 -0.295714 0.378898 -2.53656 -0.302186 
1.01929 3.63939 -0.803724 -3.02042 -2.15126 -0.361364 0.233558 -0.220425 -2.53633 
-0.428453 1.18345 -0.948288 -1.31983 1.10122 -0.682094 0.742191 -0.833627 -0.334502 
0.405175 0.25888 0.48048 -1.1621 0.0889963 -0.464917 -3.1053 -0.365543 -0.393909 
-0.0620921 -0.456487 -0.636429 0.164143 -1.08332 -0.228932 2.21756 1.09425 0.252442 
-0.900721 1.3931 -0.533711 -1.21038 -0.653545 -0.827063 -0.674156 -3.93379 -1.41744 
-3.42957 -4.14811 -0.13217 -0.49219 -3.3907 -5.40439 -0.340379 -0.498019 -0.417046 
-3.73786 -7.40805 -1.66887 -2.31513 0.131754 0.650901 2.00082 -0.533971 -0.612012 
-6.54058 -4.25203 3.87851 -2.89276 -1.61327 -0.216266 -1.13728 -0.769149 -0.168867 
0.64855 0.817673 -0.356174 1.02994 2.45693 -1.75375 6.10141 -1.27315 -3.21565 
-0.513531 7.59214 -1.80866 0.188568 -1.05725 -1.71815 0.244281 -0.425716 0.0101062 
-0.415254 -0.732344 -0.0641112 -1.61943 0.0510899 -0.710522 0.348978 -0.100018 -0.351514 
-0.232033 -4.67258 -0.840244 -0.40788 2.78165 3.54763 -0.259958 -0.0128454 -0.150955 

hks 16 252 double
0.6914954034 0.69086398042 0.69022348083 0.68958540164 0.68896211681 0.68836687002 0.68781374412 0.68731760203 0.68689399502 
0.68655903557 0.68632923363 0.68622129726 0.68625190024 0.68643742154 0.68679366309 0.68733555397 0.64050649848 0.63336070894 
0.62602468604 0.61850208855 0.61079777447 0.60291777131 0.59486922539 0.58666033147 0.57830024468 0.56979897727 0.56116728284 
0.55241653133 0.54355857803 0.5346056301 0.52557011424 0.51646454892 0.75946850195 0.76252973395 0.76583513025 0.76938949914 
0.77319599715 0.77725621837 0.78157029981 0.78613703439 0.79095398331 0.79601758019 0.80132322067 0.80686533235 0.8126374218 
0.81863209731 0.82484106787 0.83125512061 0.51227136385 0.50695601296 0.50151033085 0.49593143174 0.49021703151 0.48436546936 
0.4783757242 0.47224742683 0.46598086873 0.45957700794 0.45303747254 0.4463645614 0.43956124225 0.43263114648 0.42557856017 
0.41840841066 0.57330966581 0.57139322991 0.56958081202 0.5678753018 0.56627939208 0.56479570777 0.56342693289 0.56217592993 
0.56104584611 0.56004020128 0.55916295289 0.55841853443 0.55781186435 0.55734832402 0.55703370417 0.55687412056 0.59707100038 
0.58988969311 0.58255842294 0.57508787354 0.56748914313 0.55977366734 0.55195313662 0.5440394082 0.5360444134 0.52798006136 
0.51985814077 0.51169022192 0.50348756131 0.49526101197 0.48702094222 0.47877716606 0.50996320018 0.50400423856 0.49792088447 
0.49173032431 0.48545021255 0.47909855415 0.47269359957 0.46625375327 0.45979749603 0.45334332019 0.44690967691 0.44051493343 
0.43417733792 0.42791498959 0.42174581062 0.41568751743 0.74442486547 0.73532134563 0.7259303844 0.71625568772 0.70630259049 
0.69607798012 0.68559020372 0.67484896301 0.66386520096 0.65265098418 0.64121938415 0.62958436041 0.61776064785 0.60576364957 
0.59360933635 0.58131415297 0.48272117542 0.48081482334 0.47876848799 0.47658552698 0.47427038333 0.47182863528 0.46926703714 
0.46659354866 0.46381735058 0.46094884398 0.45799963146 0.45498247845 0.45191125353 0.44880084707 0.44566706822 0.44252652083 
0.46682569035 0.46374015598 0.46080624648 0.45802971285 0.45541543039 0.45296748055 0.45068924764 0.44858352629 0.44665263506 
0.44489853181 0.44332292577 0.44192738188 0.44071341297 0.43968255588 0.43883642827 0.43817676364 0.76935811899 0.76030590058 
0.75090526004 0.74116635229 0.73110033469 0.72071933069 0.71003639667 0.69906549052 0.68782144045 0.67631991238 0.66457737419 
0.65261105517 0.64043889949 0.62807951238 0.61555209853 0.60287639216 0.62945997361 0.63246460488 0.63588847498 0.63971995001 
0.6439443688 0.6485444625 0.65350080734 0.65879229345 0.6643965926 0.67029060892 0.6764508977 0.68285403998 0.68947696279 
0.69629719839 0.70329307846 0.71044386282 0.92228571858 0.93167421606 0.94144857665 0.95160617546 0.96214107309 0.97304400618 
0.9843024366 0.99590065555 1.0078199365 1.0200387302 1.0325328928 1.0452759394 1.0582393137 1.0713926653 1.0847041278 
1.0981405907 0.62799987632 0.61894732206 0.60987974687 0.60080797797 0.59174356779 0.58269865572 0.57368580309 0.56471780716 
0.55580750127 0.54696754891 0.53821023973 0.52954729586 0.5209896961 0.51254752503 0.50422985289 0.49604465092 0.56108081255 
0.55117772518 0.54134386271 0.53158511818 0.5219067049 0.51231322158 0.50280872402 0.49339680278 0.48408066633 0.47486322955 
0.46574720689 0.45673520989 0.44782984788 0.43903383054 0.43035007061 0.42178178425 0.89133453081 0.89279068595 0.89443519058 
0.89628641291 0.89836204724 0.90067894964 0.90325296141 0.9060987196 0.90922945502 0.91265677953 0.91639046614 0.92043822643 
0.92480549138 0.92949520243 0.9345076202 0.9398401586 0.62920047395 0.62170129985 0.61414617539 0.60654954943 0.59892638761 
0.59129198006 0.58366173526 0.57605096641 0.56847467693 0.56094735218 0.55348276454 0.5460937985 0.53879230197 0.53158896907 
0.52449325845 0.51751335006 1.0350644457 1.0533310428 1.0720260072 1.0911060693 1.1105248192 1.1302332478 1.1501803163 
1.1703135385 1.1905795611 1.2109247276 1.2312956118 1.2516395109 1.2719048865 1.2920417467 1.312001965 1.3317395317 
0.71527371608 0.70438636902 0.69338759187 0.6822913296 0.67111325964 0.65987052823 0.64858146011 0.63726525097 0.62594165204 
0.61463065591 0.603352192 0.5921258394 0.58097056375 0.56990448407 0.55894467407 0.54810700176 0.76570074029 0.75790676091 
0.74966708423 0.74098831961 0.73187886329 0.72234882957 0.7124099752 0.7020756187 0.69136055623 0.68028097539 0.66885436781 
0.65709944157 0.64503603367 0.63268502274 0.62006824195 0.60720839144 0.59196942101 0.5848198577 0.57753855874 0.57011814814 
0.56255223743 0.55483554821 0.54696400862 0.53893482282 0.53074651389 0.52239894113 0.51389329376 0.50523206355 0.49641899927 
0.48745904638 0.47835827527 0.46912380149 0.54401544679 0.53437983552 0.5247261873 0.51506178977 0.50539386341 0.49572949549 
0.48607557133 0.47643870704 0.46682518838 0.45724091999 0.4476913893 0.43818164852 0.42871631738 0.41929960814 0.40993537307 
0.40062717337 0.81322349291 0.82624315358 0.83967547217 0.85349266885 0.86766404325 0.88215639837 0.89693449008 0.91196148808 
0.92719943436 0.94260968623 0.95815333195 0.97379156939 0.98948603957 1.0051991101 1.0208941051 1.036535482 0.62126359014 
0.61575097394 0.60993135528 0.60380385966 0.59736927451 0.59063012529 0.5835907297 0.57625722749 0.56863758423 0.5607415677 
0.5525806968 0.54416816338 0.53551872838 0.52664859461 0.51757525897 0.50831734774 0.58082491575 0.57878878607 0.57675647088 
0.57473179209 0.57271918727 0.57072383491 0.5687517618 0.56680992584 0.5649062686 0.56304973284 0.56125024172 0.55951863803 
0.55786658319 0.55630641773 0.55485098653 0.55351343358 0.75766803332 0.74808671068 0.7382547199 0.72816980608 0.71783052513 
0.70723636242 0.69638784097 0.68528661689 0.67393556015 0.66233881972 0.6505018724 0.63843155579 0.62613608583 0.6136250601 