# vtk DataFile Version 5.1
vtk output
ASCII
DATASET POLYDATA
POINTS 252 float
0.841655 -0.278501 -0.026318 0.822501 -0.300228 -0.02482 0.826471 -0.326886 -0.060927 
0.825667 -0.24553 -0.097314 0.748315 -0.228905 -0.083581 0.815444 -0.230756 -0.07727 
0.758894 -0.218703 -0.099631 0.714013 -0.203303 -0.075758 0.661687 -0.188829 -0.083372 
0.568949 -0.162234 -0.066539 0.597082 -0.188109 -0.065753 0.494071 -0.140154 -0.09543 
0.57096 -0.191418 -0.081153 0.551837 -0.162301 -0.096076 0.492681 -0.133192 -0.072179 
0.502983 -0.174125 -0.0614 0.487923 -0.164498 -0.094511 0.41886 -0.127216 -0.07044 
0.409648 -0.110868 -0.096584 0.333448 -0.108485 -0.099219 0.38533 -0.130812 -0.090148 
0.369517 -0.097105 -0.081335 0.353961 -0.113513 -0.07371 0.276148 -0.079479 -0.07732 
0.282874 -0.074504 -0.098254 0.250542 0.139917 -0.009772 0.247774 0.045982 0.020408 
0.242093 0.125816 -0.036884 0.250112 -0.08619 -0.084433 0.205656 0.23001 -0.000668 
0.219986 -0.057386 -0.102119 0.218035 0.096422 -0.091846 0.218403 -0.071979 -0.100324 
0.232555 0.076564 0.078098 0.213827 0.289199 -0.10765 0.222962 0.22441 -0.074127 
0.225636 -0.017298 0.06398 0.194115 0.163607 -0.097143 0.19893 -0.072213 0.05712 
0.203186 0.334736 -0.107 0.221975 -0.03204 0.002287 0.195811 0.087188 0.127937 
0.233518 0.032068 -0.060505 0.2096 0.160112 0.071864 0.166749 -0.08019 0.120158 
0.187874 -0.041997 -0.081183 0.146787 0.032208 -0.137034 0.188383 -0.054232 -0.046239 
0.168232 -0.052364 -0.12454 0.172939 -0.005855 -0.111436 0.158605 0.174428 0.126943 
0.183085 0.254907 -0.155693 0.189685 0.293343 -0.027181 0.17376 0.337946 -0.055699 
0.174369 0.335853 -0.171697 0.154847 -0.073706 -0.096824 0.197196 -0.002021 0.121532 
0.148101 0.139752 -0.136058 0.149786 0.397913 -0.195591 0.142707 0.243065 0.088382 
0.124606 0.414595 -0.198831 0.149879 0.129204 0.157082 0.117554 -0.020935 -0.122218 
0.121166 0.0356 0.19032 0.155027 0.390949 -0.139975 0.14987 0.281553 0.029729 
0.157325 -0.123653 0.030737 0.146469 -0.060237 0.156073 0.118994 0.200588 -0.172093 
0.12952 -0.160019 0.100829 0.14355 0.349795 -0.053711 0.136948 -0.088479 -0.049749 
0.081244 0.115239 -0.15454 0.054409 0.359551 -0.095822 0.100607 0.344714 -0.19253 
0.071474 0.215243 -0.176819 0.105033 0.004548 0.191266 0.046928 0.042278 0.20028 
0.069884 -0.014294 -0.136359 0.087114 -0.20995 0.047981 0.043771 -0.242193 0.080725 
0.079389 0.371096 -0.183572 0.085905 0.095181 0.190707 0.021866 0.077517 -0.168184 
0.075639 0.158849 -0.156915 0.084927 -0.154464 0.179269 0.083217 -0.133627 -0.047084 
0.072054 0.319451 0.007612 0.087599 -0.08526 0.205712 0.094499 0.188913 0.144541 
0.068532 0.381746 -0.146675 0.076055 0.246442 0.064223 0.07022 -0.208095 0.006737 
0.025871 0.134086 0.174102 0.03164 -0.090778 0.224391 0.03184 -0.201048 -0.019975 
0.0459 0.267728 -0.177899 0.00093 0.187016 0.134077 0.029835 0.320286 -0.166199 
0.039889 -0.114583 -0.070767 0.019637 0.333831 -0.137179 0.011964 -0.283611 0.095929 
0.036537 -0.295312 0.044768 -0.003175 -0.122979 0.213429 0.008539 0.133539 -0.142725 
0.022421 -0.291495 0.010705 0.027754 -0.049493 -0.156624 -0.001263 -0.345249 0.055161 
0.025331 0.229702 0.079264 -0.010124 -0.049336 0.220547 0.039948 0.027599 -0.16073 
0.014891 0.320692 -0.063385 0.031143 -0.16257 0.188248 0.004311 -0.224042 0.108501 
-0.00079 0.020227 -0.152798 -0.009374 0.251404 0.053267 0.017599 -0.057138 -0.101796 
0.006103 -0.340273 0.120148 -0.032709 -0.049429 -0.150831 -0.029521 -0.238937 0.086725 
0.010068 0.284119 8.5e-05 -0.030492 -0.197698 0.125845 -0.01097 -0.24488 -0.007569 
0.007445 0.184282 -0.129451 -0.016134 0.25086 -0.052818 -0.018875 -0.180039 -0.026342 
-0.021491 -0.012287 -0.137058 -0.024597 -0.037648 -0.181009 -0.040108 0.207016 0.035702 
-0.021707 -0.31935 0.025196 -0.02786 -0.050915 -0.096856 -0.069554 -0.157585 0.002145 
-0.067769 -0.327079 0.17871 -0.019497 0.236049 -0.117514 -0.052042 -0.302202 0.172648 
-0.02639 0.023659 0.187187 -0.021476 0.207645 0.089904 -0.04611 -0.361728 0.137016 
-0.043895 -0.287075 0.132421 -0.057314 -0.210412 0.037884 -0.041365 -0.268075 0.07014 
-0.045117 -0.291871 0.03743 -0.035005 0.097281 -0.15271 -0.046244 0.107268 0.15362 
-0.055101 -0.148554 0.173373 -0.069887 0.138581 -0.09545 -0.070495 0.176344 0.061062 
-0.052786 0.18914 -0.026282 -0.052937 -0.353292 0.092368 -0.072341 0.025569 0.152128 
-0.059656 -0.296851 0.09407 -0.078904 -0.079404 -0.046167 -0.094391 -0.226347 0.181173 
-0.083854 0.066314 0.135172 -0.068564 -0.095227 0.191257 -0.065078 -0.051019 0.196061 
-0.11751 -0.05648 -0.220419 -0.143917 -0.081217 -0.255119 -0.09475 -0.330346 0.113472 
-0.101194 -0.086603 0.156464 -0.097975 0.043721 -0.095978 -0.098366 -0.34347 0.155008 
-0.114939 0.070156 0.066733 -0.099327 -0.136065 0.107965 -0.115353 -0.094542 0.072282 
-0.073352 -0.072726 -0.186953 -0.110311 0.120863 -0.031028 -0.128642 0.068205 0.002116 
-0.089511 -0.057803 -0.183866 -0.115878 -0.023631 -0.047923 -0.116493 -0.063273 0.008354 
-0.12587 -0.007584 0.068229 -0.139209 -0.276192 0.143831 -0.138004 0.009993 -0.017944 
-0.137506 -0.188097 0.15322 -0.151706 -0.197434 0.22814 -0.136867 -0.266598 0.204505 
-0.180341 -0.11103 -0.24553 -0.102846 -0.244105 0.13519 -0.160329 -0.06708 0.167029 
-0.141439 -0.131299 0.219897 -0.143086 -0.142568 0.167516 -0.195055 -0.048301 0.153674 
-0.177724 -0.22863 0.195439 -0.171506 0.001972 0.197128 -0.177047 -0.037946 0.226117 
-0.189653 -0.140909 0.235775 -0.216339 -0.12996 0.198404 -0.201518 0.040522 0.156476 
-0.193459 -0.083675 -0.271806 -0.13644 -0.097869 -0.245636 -0.188697 -0.161931 0.167913 
-0.256412 0.055852 0.12719 -0.222849 -0.035556 0.223378 -0.250121 -0.106396 -0.291112 
-0.271492 0.017012 0.157436 -0.236627 0.099741 0.172509 -0.23491 -0.043288 0.182504 
-0.249116 0.056948 0.211511 -0.190835 -0.093638 -0.24603 -0.251629 -0.133291 -0.285574 
-0.29845 0.05822 0.135477 -0.245887 0.076228 0.126304 -0.259967 -0.154176 -0.322815 
-0.27136 0.129496 0.115382 -0.269293 -0.13822 -0.339964 -0.31394 0.152624 0.060541 
-0.312214 0.184262 0.071596 -0.278436 0.11617 0.184218 -0.277814 -0.163545 -0.303464 
-0.308596 -0.129108 -0.310729 -0.307226 -0.124078 -0.341215 -0.315877 0.102449 0.176793 
-0.332836 0.107735 0.079864 -0.308057 0.179776 0.118887 -0.321073 0.164479 0.148739 
-0.299964 0.061312 0.176179 -0.3545 0.087544 0.106728 -0.369787 -0.205289 -0.351598 
-0.353606 -0.195292 -0.367173 -0.368613 0.219021 0.105184 -0.398296 0.172554 0.138498 
-0.364408 0.183483 0.040188 -0.369857 -0.182849 -0.349027 -0.462422 -0.267459 -0.412354 
-0.364296 -0.177739 -0.368617 -0.363654 0.10327 0.143997 -0.364532 0.119408 0.04508 
-0.383971 0.212008 0.057359 -0.419357 0.09188 0.061818 -0.43856 0.122574 0.128062 
-0.447052 0.179984 0.042459 -0.437509 0.162785 0.099008 -0.441546 -0.233386 -0.412569 
-0.470203 0.127031 0.090018 -0.489054 0.128076 0.043186 -0.43242 0.143924 0.050589 
-0.476422 -0.245171 -0.412938 -0.488198 0.161672 0.074731 -0.493921 -0.283798 -0.452324 
-0.480351 -0.262244 -0.405108 -0.521264 -0.404824 -0.398021 -0.525915 -0.336795 -0.453414 
-0.460816 0.187948 0.058985 -0.516421 -0.351184 -0.41823 -0.540757 0.139017 0.052436 
-0.522858 0.159818 0.032484 -0.52152 0.10786 0.075068 -0.529244 -0.311395 -0.432515 
-0.540877 -0.346728 -0.386959 -0.544203 -0.300427 -0.451365 -0.556153 -0.355594 -0.365296 

POLYGONS 501 1500
OFFSETS vtktypeint64
0 3 6 9 12 15 18 21 24 
27 30 33 36 39 42 45 48 51 
54 57 60 63 66 69 72 75 78 
81 84 87 90 93 96 99 102 105 
108 111 114 117 120 123 126 129 132 
135 138 141 144 147 150 153 156 159 
162 165 168 171 174 177 180 183 186 
189 192 195 198 201 204 207 210 213 
216 219 222 225 228 231 234 237 240 
243 246 249 252 255 258 261 264 267 
270 273 276 279 282 285 288 291 294 
297 300 303 306 309 312 315 318 321 
324 327 330 333 336 339 342 345 348 
351 354 357 360 363 366 369 372 375 
378 381 384 387 390 393 396 399 402 
405 408 411 414 417 420 423 426 429 
432 435 438 441 444 447 450 453 456 
459 462 465 468 471 474 477 480 483 
486 489 492 495 498 501 504 507 510 
513 516 519 522 525 528 531 534 537 
540 543 546 549 552 555 558 561 564 
567 570 573 576 579 582 585 588 591 
594 597 600 603 606 609 612 615 618 
621 624 627 630 633 636 639 642 645 
648 651 654 657 660 663 666 669 672 
675 678 681 684 687 690 693 696 699 
702 705 708 711 714 717 720 723 726 
729 732 735 738 741 744 747 750 753 
756 759 762 765 768 771 774 777 780 
783 786 789 792 795 798 801 804 807 
810 813 816 819 822 825 828 831 834 
837 840 843 846 849 852 855 858 861 
864 867 870 873 876 879 882 885 888 
891 894 897 900 903 906 909 912 915 
918 921 924 927 930 933 936 939 942 
945 948 951 954 957 960 963 966 969 
972 975 978 981 984 987 990 993 996 
999 1002 1005 1008 1011 1014 1017 1020 1023 
1026 1029 1032 1035 1038 1041 1044 1047 1050 
1053 1056 1059 1062 1065 1068 1071 1074 1077 
1080 1083 1086 1089 1092 1095 1098 1101 1104 
1107 1110 1113 1116 1119 1122 1125 1128 1131 
1134 1137 1140 1143 1146 1149 1152 1155 1158 
1161 1164 1167 1170 1173 1176 1179 1182 1185 
1188 1191 1194 1197 1200 1203 1206 1209 1212 
1215 1218 1221 1224 1227 1230 1233 1236 1239 
1242 1245 1248 1251 1254 1257 1260 1263 1266 
1269 1272 1275 1278 1281 1284 1287 1290 1293 
1296 1299 1302 1305 1308 1311 1314 1317 1320 
1323 1326 1329 1332 1335 1338 1341 1344 1347 
1350 1353 1356 1359 1362 1365 1368 1371 1374 
1377 1380 1383 1386 1389 1392 1395 1398 1401 
1404 1407 1410 1413 1416 1419 1422 1425 1428 
1431 1434 1437 1440 1443 1446 1449 1452 1455 
1458 1461 1464 1467 1470 1473 1476 1479 1482 
1485 1488 1491 1494 1497 1500 
CONNECTIVITY vtktypeint64
88 76 77 77 135 109 109 135 155 
185 184 198 185 198 193 197 193 216 
193 198 216 197 216 195 88 77 94 
94 77 109 94 109 103 103 109 154 
154 109 155 180 179 184 185 180 184 
185 193 186 186 193 187 191 187 197 
197 187 193 88 94 85 112 85 94 
112 94 103 144 103 154 180 181 179 
180 185 186 175 180 186 112 103 144 
152 180 175 180 152 181 183 175 186 
191 183 187 183 186 187 132 134 175 
134 152 175 132 175 176 176 175 183 
132 176 161 183 161 176 211 225 223 
225 205 219 211 205 225 250 242 251 
249 244 248 244 241 242 249 248 250 
240 250 248 250 239 242 244 224 248 
248 224 240 237 250 240 239 244 242 
239 224 244 233 239 250 233 224 239 
222 206 227 207 206 222 228 207 222 
128 147 146 136 115 128 59 29 65 
43 29 59 115 108 120 108 91 120 
91 65 87 29 52 65 95 105 122 
147 166 146 91 87 120 65 70 87 
7 8 9 4 7 10 8 6 12 
14 13 11 16 15 17 7 6 8 
6 4 12 8 12 13 12 4 10 
7 9 10 9 8 13 10 9 15 
9 13 14 12 10 15 13 12 16 
12 15 16 15 9 14 11 13 16 
0 3 5 1 0 5 5 3 6 
3 4 6 4 5 7 5 6 7 
3 0 2 99 125 130 116 99 130 
71 86 62 19 28 32 28 22 23 
20 22 28 19 20 28 18 19 24 
17 21 22 20 17 22 18 20 19 
17 18 21 16 17 20 18 16 20 
16 18 11 17 14 18 15 14 17 
14 11 18 78 99 116 62 99 78 
62 86 99 55 71 62 55 47 71 
45 47 55 28 45 55 24 19 32 
22 21 23 21 18 24 126 130 151 
48 55 62 32 55 48 30 48 49 
166 147 145 24 32 30 122 141 139 
92 102 105 102 79 80 79 102 92 
66 79 92 71 66 92 66 69 79 
131 164 170 164 139 163 131 139 164 
170 164 171 40 38 66 40 36 38 
173 170 171 26 36 40 171 162 167 
246 235 245 236 229 235 236 227 229 
206 213 227 162 166 167 146 166 162 
25 43 33 26 25 33 243 246 245 
238 243 245 231 235 246 231 236 235 
243 231 246 231 222 236 228 222 231 
222 227 236 131 122 139 92 105 95 
171 167 173 111 100 133 100 98 133 
54 34 51 39 34 54 73 100 111 
90 98 100 73 90 100 90 81 98 
39 54 64 59 65 91 228 231 243 
136 128 146 122 129 141 105 102 107 
105 107 129 122 105 129 43 59 50 
89 50 59 59 91 89 89 91 97 
97 91 108 108 115 136 97 108 136 
214 207 220 207 228 220 220 228 243 
232 220 243 143 97 146 146 97 136 
153 143 146 204 207 214 204 206 207 
221 220 232 230 232 234 234 232 238 
232 243 238 33 43 41 41 43 50 
153 146 162 206 204 202 192 213 202 
206 202 213 213 217 227 227 217 229 
226 230 229 235 229 234 229 230 234 
235 234 247 247 234 238 73 60 90 
70 64 73 64 60 73 64 54 58 
190 165 177 177 168 199 168 156 199 
165 168 177 127 190 157 127 157 156 
127 165 190 106 165 127 168 127 156 
110 106 127 96 68 75 74 68 96 
74 51 68 81 96 98 74 96 81 
54 51 74 60 81 90 60 74 81 
199 156 189 118 130 126 106 130 118 
106 116 130 78 116 106 30 32 48 
118 126 168 126 127 168 114 127 126 
114 110 127 78 106 110 46 78 110 
46 62 78 46 49 62 49 48 62 
126 160 142 142 114 126 83 114 142 
83 110 114 46 110 83 57 46 72 
42 49 46 104 142 145 104 83 142 
72 83 104 46 83 72 84 57 72 
57 31 46 37 31 57 123 145 133 
123 104 145 123 84 104 75 84 123 
84 72 104 68 57 84 51 37 57 
35 37 51 96 123 133 96 75 123 
68 51 57 98 96 133 68 84 75 
125 122 131 125 95 122 99 95 125 
86 95 99 86 92 95 151 131 170 
125 131 151 130 125 151 71 92 86 
47 66 71 151 170 169 139 121 144 
139 144 163 178 150 172 172 150 158 
148 137 161 63 61 82 44 67 85 
67 88 85 69 44 85 144 159 163 
144 154 159 80 85 113 113 85 112 
112 121 113 121 112 144 174 152 178 
152 174 181 181 174 191 174 178 191 
178 172 191 191 172 183 117 101 134 
134 101 138 101 150 138 132 117 134 
152 134 138 138 150 178 152 138 178 
158 161 172 161 183 172 117 132 137 
137 132 161 198 196 208 198 208 212 
216 198 212 76 63 77 63 82 77 
77 82 93 77 93 135 135 93 143 
184 188 196 184 196 198 47 40 66 
169 170 173 42 40 47 42 26 40 
27 26 42 167 166 173 27 25 26 
35 29 25 43 25 29 25 27 35 
128 124 147 115 124 128 120 124 115 
111 124 120 120 87 111 52 53 65 
65 53 70 1 4 3 1 3 2 
4 1 5 73 87 70 233 250 237 
219 203 218 242 241 251 240 223 237 
240 218 223 224 218 240 219 224 233 
219 218 224 225 233 223 225 219 233 
223 233 237 58 74 60 58 60 64 
58 54 74 203 177 200 177 199 200 
190 177 203 38 69 66 141 140 139 
129 148 141 213 192 201 213 201 217 
247 238 245 36 26 33 36 33 56 
56 33 41 245 235 247 36 56 44 
171 149 162 36 44 38 38 44 69 
164 159 171 163 159 164 80 69 85 
69 80 79 139 119 121 101 80 113 
101 113 119 113 121 119 101 119 140 
140 119 139 102 80 101 117 102 101 
101 140 150 140 141 148 140 148 150 
148 158 150 102 117 107 107 117 148 
117 137 148 129 107 148 158 148 161 
215 214 220 61 50 89 93 82 89 
93 89 97 199 189 194 156 157 189 
218 210 223 203 209 218 209 210 218 
210 211 223 194 211 210 200 210 209 
200 194 210 194 189 211 189 205 211 
200 199 194 203 200 209 205 190 203 
157 205 189 157 190 205 205 203 219 
32 28 55 42 47 45 45 30 49 
45 24 30 28 23 45 23 24 45 
21 24 23 160 169 173 151 169 160 
126 151 160 42 45 49 166 160 173 
31 42 46 31 27 42 145 160 166 
145 142 160 27 31 37 147 133 145 
35 27 37 147 124 133 34 35 51 
124 111 133 34 39 52 29 35 34 
29 34 52 87 73 111 53 64 70 
39 64 53 52 39 53 165 118 168 
106 118 165 182 191 197 182 181 191 
179 181 182 154 155 159 56 67 44 
192 182 195 195 182 197 192 188 182 
188 179 182 184 179 188 149 171 159 
155 149 159 135 149 155 88 67 76 
67 63 76 67 56 63 217 226 229 
196 204 214 196 214 208 208 214 215 
212 215 226 221 215 220 226 215 221 
226 221 230 221 232 230 41 50 61 
63 41 61 82 61 89 93 97 143 
188 202 196 196 202 204 208 215 212 
217 201 216 217 216 226 216 212 226 
56 41 63 135 143 149 149 143 153 
149 153 162 202 188 192 192 195 201 
201 195 216 249 250 251 2 0 1 
241 244 251 244 249 251 
POINT_DATA 252
SCALARS k float
LOOKUP_TABLE default
1.97817 0.780799 3.40597 1.0387 -1.38975 0.230926 0.242379 -0.0902509 -0.221206 
0.00190705 -0.00181925 0.000597835 -0.0875261 0.0454292 0.173271 0.521116 0.0779891 -0.35764 
-0.0773382 0.0583319 -0.0841344 0.143 0.0449378 -0.0876828 -0.0837426 0.207747 0.105013 
-0.0444983 -0.213751 -0.0368614 -0.773361 0.157731 -0.312579 0.120046 0.110016 -0.123845 
0.123333 -0.106898 0.0501896 0.340429 0.0910016 0.0849663 0.184774 0.054832 0.0227711 
-2.59562 0.112151 -0.0713202 0.52774 -0.824023 0.0612301 0.131716 0.0345598 0.097767 
-0.0278263 -0.690866 0.0717959 -0.191614 0.830339 0.225393 1.91177 0.111423 -0.4755 
0.15547 0.123683 -0.109377 -0.00541532 -0.0071671 0.105776 0.103064 0.0464815 -0.503883 
-0.102719 0.0397956 -0.0039345 0.116927 -0.094611 -0.0336167 -0.466271 -0.154779 -0.341416 
0.0172777 0.108898 0.190727 -0.238533 0.300144 -0.0122974 0.283925 0.148816 0.103056 
0.113302 -0.0741799 -0.113184 0.105739 0.227467 -0.119263 0.101629 0.187327 0.181832 
-0.01908 0.217616 -1.49404 -0.079488 0.205774 -0.155481 0.306566 0.349464 0.588808 
-0.0421717 0.160466 -0.254331 0.115674 0.149871 -0.443536 -0.456146 0.311369 -0.428175 
0.709522 -1.22053 -0.336092 -0.209862 -0.139045 -0.0248901 -0.0699385 -0.0241762 -0.109013 
-1.23222 -0.933014 -0.0748218 0.404318 -0.918282 -0.00880432 0.369718 -0.146462 -0.0888251 
-0.0407608 -0.0925059 0.615865 -0.640133 -0.376087 -1.08669 0.00965369 0.391826 0.108264 
0.221799 -0.153393 0.19662 -0.0429754 -0.0997781 -0.104196 -1.66356 -0.0300201 -0.301449 
0.153368 0.14752 0.179727 0.102901 -0.0208085 0.224953 0.259407 0.172066 0.582286 
0.0478429 0.145804 0.0636417 -0.272419 0.19984 0.0661392 -0.351885 0.13131 -0.0230168 
0.0167056 0.0130539 0.281903 -0.153528 0.108317 0.172097 0.0128515 -0.378922 0.043139 
0.00206029 -0.370569 -0.217782 0.239449 0.340313 0.211915 0.322815 0.150607 0.0797388 
0.00566196 -0.0067693 -0.142425 -0.292716 -0.0801476 -0.122007 -0.0831711 0.157128 -0.43087 
0.188779 0.0177089 -0.40919 -0.378666 -0.164406 -0.0851599 -0.0245597 0.232532 0.124109 
0.536746 0.159804 0.368164 0.385318 0.531931 0.0879502 -0.201344 0.082823 -0.104639 
-0.252942 -0.378368 -0.14059 -0.15641 0.820065 0.385688 0.34299 -0.177074 -0.933073 
-0.241651 -0.488701 0.396867 0.492671 0.470984 0.638403 -0.119824 -0.129509 -0.183422 
-1.2502 -0.316957 -0.0121821 0.167621 0.0855783 0.506476 -0.0383523 3.55268 0.676925 
0.00146353 -1.27034 1.80902 1.52538 2.19606 -0.705531 0.0027585 1.28203 3.15594 

FIELD FieldData 7
h 1 252 float
-0.782676 -0.580177 -0.771791 -3.08729 -0.68154 5.59542 6.88886 6.94373 14.454 
28.7447 1.16934 1.01816 12.3885 3.13342 -57.3176 -3.83518 1.63507 -19.7555 
3.65281 1.0188 1.64355 -7.5869 -2.61146 -0.516836 1.56914 3.76504 5.42568 
3.87332 2.16455 3.98835 0.690296 0.463491 0.755957 3.84745 4.91114 5.92236 
4.60802 2.08135 4.77759 6.22435 4.63673 5.02104 2.16187 4.43384 4.52293 
-1.49805 0.248382 2.75106 1.01369 0.332311 5.64972 1.81673 5.50421 6.45519 
4.08353 0.628061 4.6013 0.0579308 3.77637 6.0774 5.33453 6.1216 0.391396 
5.67846 6.80296 6.08469 4.07706 5.24856 1.46252 4.66662 5.66423 0.582426 
-0.0428632 5.25882 3.92443 4.15838 5.53836 5.99389 0.329676 5.92497 3.59516 
5.43756 6.3277 0.131826 1.97751 4.28169 0.339151 6.12758 5.77886 5.97202 
5.77358 4.79927 3.35998 6.27603 6.62784 0.766569 4.69842 6.67889 6.13937 
0.0519217 4.17139 1.17215 5.59034 6.80755 3.77495 1.56097 0.823708 8.05652 
4.84645 6.97818 0.113665 4.70741 5.72251 2.16785 2.59963 5.13048 -0.0382956 
3.39009 0.943178 5.22342 5.07023 7.62223 3.52659 3.84695 3.82823 1.49282 
3.72251 1.37611 3.97903 1.70084 0.0284852 3.83008 0.835523 2.56716 2.05261 
6.02082 5.34208 10.0634 -7.06717 1.33988 1.31363 1.10941 5.37968 6.18763 
6.18647 4.00511 3.57421 2.39649 -0.116173 5.11715 0.142565 4.28912 1.05137 
5.43558 6.87137 6.3827 3.86525 1.76782 -0.557125 4.89985 4.67666 9.29412 
3.22538 4.02735 2.6614 0.856803 2.44986 3.55285 -1.21016 4.26852 2.96032 
3.05946 -1.05627 2.69273 -0.773655 0.621527 2.46691 2.13431 -0.299737 1.95762 
1.89814 -2.26469 -1.23472 1.09575 0.64104 3.78666 -0.11542 -0.558599 0.305459 
3.33558 1.19283 -1.04152 1.02487 -0.528806 -1.69855 0.0996708 -0.322509 -0.708566 
3.20225 -0.469916 12.3093 1.26089 1.04373 1.40921 5.10678 2.87344 2.37354 
8.28266 6.96382 -2.16082 -5.22496 4.3092 1.62527 3.98644 7.31452 2.52277 
1.23725 5.06832 -10.2075 4.41741 9.62567 4.09235 0.874081 -2.22429 -5.08795 
-0.0101889 0.848167 5.05765 19.0517 12.9418 3.54428 -0.414702 2.5858 9.42886 
1.18051 -1.10904 0.284142 -0.37272 2.04912 2.15849 -7.60202 10.1642 8.66493 
8.07872 8.30425 2.1149 2.76569 2.01938 -6.61841 2.10537 10.3202 2.71974 

kmin 1 252 float
2.88693 1.64837 -0.104349 -0.114366 -0.0204009 11.172 13.9538 14.1797 28.7349 
57.5952 2.58237 1.87313 24.9949 5.96918 0.943479 0.710341 3.28866 0.503598 
7.75734 2.24476 4.61275 -1.4001 -1.02405 3.24447 3.67191 4.55843 8.53102 
5.75716 5.60679 5.56576 2.51762 2.32384 1.91247 4.65404 8.6709 10.4954 
6.6256 2.87571 7.33747 11.3223 7.18872 7.04108 2.32733 6.26603 6.75805 
0.332436 1.76587 5.46095 2.26925 2.06277 8.52094 3.15762 9.05338 10.7486 
7.62521 1.82289 6.46982 1.15879 8.18214 9.66554 11.3015 9.1717 1.70442 
8.55145 12.4167 9.99631 6.74131 8.21843 2.25503 7.22563 9.2235 3.14898 
1.41399 8.75436 7.30906 7.32119 8.3416 9.07693 1.70994 9.98609 6.31992 
10.8907 9.43363 1.83107 3.16646 5.98639 1.59935 10.0269 9.19144 9.19136 
11.0592 7.88245 4.75107 9.30299 10.6972 1.62091 8.41599 10.7824 11.1456 
1.59351 7.00378 1.86095 10.3291 10.9434 7.83292 2.61911 1.84318 13.6358 
8.06264 10.6158 1.47564 7.61382 9.77628 4.18026 6.64343 8.4367 1.93742 
8.12731 3.94252 8.35434 8.19953 12.3276 5.53853 6.74613 6.07489 2.42653 
6.26046 3.16106 5.85557 4.10204 2.42411 6.7067 3.8016 3.61154 3.59806 
8.80737 8.4592 13.4217 -3.64468 3.08535 1.77748 2.49003 10.2124 9.46362 
9.78526 7.52799 4.449 2.70725 0.830112 7.62722 0.743472 7.29317 1.34387 
8.04938 10.6685 9.57542 8.69117 3.67347 0.921649 7.45236 7.95014 18.709 
3.60397 6.98683 4.57704 2.16206 2.91444 4.44409 1.61355 6.82555 4.25089 
3.64833 0.17499 3.41362 1.52771 2.90729 3.2733 5.62129 2.29687 4.81078 
2.56708 -1.80035 0.395107 3.16834 2.91424 5.3707 2.37092 2.24702 2.66469 
8.24288 2.64213 0.21165 3.87841 1.96217 -0.927051 2.50095 3.2778 0.739837 
4.20392 2.81606 25.7376 5.26251 3.46975 3.32814 10.1015 6.03782 6.15716 
14.7772 11.2128 -0.549468 0.0408475 8.15265 1.99629 11.235 12.0024 3.03497 
3.3838 14.0075 -0.966828 8.99638 14.7071 6.82306 2.56871 0.333017 -0.178892 
0.901723 1.75373 11.9426 31.3495 29.4668 8.06972 0.137444 4.088 18.583 
4.25743 -0.363703 1.5569 0.863282 2.40261 4.48346 0.00438329 29.2799 10.9856 
11.4972 19.2583 4.201 4.16312 6.60452 -0.188244 8.57574 19.9555 13.524 

kmax 1 252 float
-4.45228 -2.80872 -1.43923 -6.06021 -1.34268 0.0188092 -0.176077 -0.29223 0.173116 
-0.10575 -0.243696 0.163185 -0.21779 0.297659 -115.579 -8.38069 -0.0185223 -40.0145 
-0.451727 -0.207161 -1.32565 -13.7737 -4.19888 -4.27815 -0.533632 2.97164 2.32034 
1.98948 -1.27768 2.41094 -1.13703 -1.39686 -0.400553 3.04085 1.15137 1.34938 
2.59045 1.28699 2.2177 1.12638 2.08474 3.001 1.99641 2.60165 2.28781 
-3.32854 -1.2691 0.0411712 -0.241875 -1.39814 2.77851 0.475827 1.95504 2.16178 
0.541841 -0.566763 2.73278 -1.04293 -0.6294 2.48926 -0.63244 3.0715 -0.921633 
2.80546 1.18925 2.17307 1.41282 2.27869 0.670007 2.10761 2.10496 -1.98413 
-1.49971 1.76327 0.539799 0.995577 2.73511 2.91086 -1.05059 1.86386 0.870396 
-0.01563 3.22176 -1.56741 0.78856 2.57698 -0.921051 2.22827 2.36628 2.75268 
0.487953 1.71608 1.96889 3.24908 2.55847 -0.0877719 0.980857 2.57537 1.13318 
-1.48966 1.33901 0.483347 0.851567 2.67172 -0.283025 0.502822 -0.195765 2.47727 
1.63025 3.34052 -1.24831 1.80099 1.66874 0.155439 -1.44418 1.82426 -2.01401 
-1.34713 -2.05617 2.0925 1.94094 2.91682 1.51465 0.947769 1.58156 0.559115 
1.18455 -0.408845 2.10249 -0.700353 -2.36714 0.953463 -2.13055 1.52279 0.507164 
3.23427 2.22497 6.70514 -10.4897 -0.405594 0.849788 -0.271217 0.546909 2.91164 
2.58767 0.482229 2.69943 2.08574 -1.06246 2.60708 -0.458341 1.28507 0.758862 
2.82179 3.07427 3.18998 -0.960674 -0.137828 -2.0359 2.34734 1.40317 -0.120771 
2.8468 1.06788 0.745751 -0.448457 1.98527 2.66161 -4.03387 1.7115 1.66975 
2.47059 -2.28752 1.97184 -3.07503 -1.66423 1.66052 -1.35267 -2.89634 -0.895547 
1.22919 -2.72904 -2.86454 -0.97683 -1.63216 2.20263 -2.60176 -3.36422 -2.05377 
-1.57173 -0.256474 -2.2947 -1.82868 -3.01978 -2.47005 -2.30161 -3.92282 -2.15697 
2.20058 -3.75589 -1.11908 -2.74073 -1.3823 -0.509721 0.112048 -0.29094 -1.41007 
1.78809 2.71487 -3.77216 -10.4908 0.465748 1.25425 -3.26208 2.62659 2.01056 
-0.909299 -3.8709 -19.4482 -0.16156 4.54428 1.36165 -0.820544 -4.7816 -9.99702 
-0.922101 -0.0573939 -1.82726 6.75387 -3.58323 -0.981159 -0.966847 1.0836 0.274753 
-1.89641 -1.85438 -0.988611 -1.60872 1.69564 -0.166476 -15.2084 -8.9515 6.34428 
4.66027 -2.64981 0.028793 1.36826 -2.56577 -13.0486 -4.36501 0.684898 -8.08449 

hks 16 252 double
3.721073539 3.7770193428 3.8323266962 3.8870094707 3.9410888166 3.9945920872 4.0475517364 4.1000042029 4.1519887944 
4.2035465783 4.2547192823 4.3055482082 4.3560731608 4.4063313933 4.4563565741 4.5061777772 3.634158433 3.6920293518 
3.7492751788 3.8059050401 3.861935189 3.9173879747 3.9722907848 4.0266749752 4.0805747983 4.1340263361 4.1870664404 
4.2397316834 4.2920573196 4.3440762612 4.3958180709 4.4473079768 3.9595688751 4.0087736174 4.0574195824 4.1055276806 
4.1531264703 4.2002510337 4.2469418049 4.2932433692 4.3392032529 4.3848707133 4.4302955394 4.4755268696 4.5206120309 
4.5655954038 4.6105173178 4.6554129808 3.3860715919 3.4489944059 3.5113808164 3.5732215991 3.63451453 3.6952635062 
3.7554776284 3.8151702582 3.8743580601 3.9330600353 3.9912965513 4.0490883694 4.106455674 4.1634171065 4.2199888102 
4.2761834915 2.5939855413 2.6614644251 2.7293338036 2.7975174063 2.8659427998 2.9345412714 3.0032476123 3.0719998149 
3.1407386994 3.2094074798 3.2779512849 3.3463166422 3.4144509371 3.4823018579 3.5498168371 3.6169424993 3.0141094329 
3.0818440875 3.149357769 3.2166086086 3.2835609541 3.3501848238 3.4164552903 3.482351807 3.54785749 3.6129583627 
3.6776425724 3.741899583 3.805719353 3.869091504 3.9320044896 3.9944447735 2.4404518668 2.5063814332 2.5728713962 
2.6398512729 2.7072518616 2.7750051956 2.8430444414 2.9113037492 2.979718062 3.0482228901 3.1167540559 3.1852474152 
3.2536385585 3.3218625011 3.3898533653 3.4575440655 2.2690263461 2.3301358456 2.3921194325 2.4549139695 2.5184543132 
2.5826733383 2.6475019526 2.7128691076 2.7787018051 2.8449251026 2.9114621153 2.9782340173 3.0451600406 3.1121574727 
3.1791416551 3.2460259839 2.0737582174 2.1240032618 2.1753227743 2.2276947338 2.2810908059 2.3354760507 2.3908087309 
2.447040221 2.5041150164 2.5619708344 2.6205388001 2.6797437057 2.739504333 2.7997338267 2.8603401089 2.9212263227 
1.9561357116 1.9983325583 2.0414166411 2.0853977186 2.1302800013 2.17606142 2.222733013 2.2702784416 2.31867364 
2.3678865987 2.4178772762 2.4685976332 2.5199917768 2.571996203 2.6245401249 2.6775458719 2.0551868496 2.1069905514 
2.1598080549 2.2136111236 2.2683662603 2.3240344399 2.380570918 2.4379251182 2.4960405981 2.5548550909 2.6143006156 
2.6743036501 2.7347853583 2.7956618633 2.8568445586 2.9182404493 1.7425115111 1.768193358 1.7938024348 1.8193574098 
1.8448823805 1.8704061228 1.8959612382 1.9215832209 1.9473094632 1.9731782207 1.9992275566 2.0254942854 2.0520129328 
2.0788147318 2.1059266677 2.1333705903 1.960172631 2.0093279011 2.0593707097 2.1102857108 2.1620529005 2.2146471637 
2.2680379013 2.3221887459 2.3770573662 2.432595361 2.4887482378 2.5454554695 2.6026506236 2.6602615534 2.7182106452 
2.7764151121 1.8622051072 1.8978340688 1.9340104643 1.970756759 2.0080938037 2.0460398605 2.0846096797 2.123813648 
2.1636570261 2.2041392872 2.2452535642 2.2869862101 2.3293164712 2.3722162713 2.4156501026 2.4595750154 1.7622161504 
1.7902555456 1.8183518886 1.8465273283 1.8748078694 1.9032225129 1.9318023337 1.960579515 1.9895863622 2.0188543143 
2.0484129706 2.0782891507 2.1085060002 2.1390821564 2.1700309849 2.2013598958 1.8068557348 1.8424681525 1.8784982787 
1.9149678967 1.951897964 1.9893077146 2.0272137997 2.0656294804 2.1045638889 2.1440213666 2.1840008872 2.2244955671 
2.265492268 2.3069712882 2.3489061439 2.3912634357 1.6851788644 1.7127301595 1.7401901433 1.7675763848 1.7949110195 
1.8222200834 1.849532771 1.8768806324 1.9042967215 1.9318147094 1.9594679758 1.9872886929 2.0153069151 2.0435496878 
2.0720401905 2.100796926 1.6040254475 1.6230066652 1.6414668823 1.6594210018 1.6768911871 1.6939065518 1.71050274 
1.7267213991 1.7426095432 1.7582188115 1.773604625 1.7888252506 1.8039407826 1.8190120561 1.8340995097 1.8492620158 
1.5390165082 1.554891215 1.5701082554 1.5846828743 1.5986378423 1.6120032212 1.6248160322 1.6371198251 1.6489641426 
1.660403879 1.6714985346 1.6823113664 1.6929084445 1.7033576229 1.7137274387 1.7240859563 1.3410200937 1.3453730892 
1.3488825216 1.3515707394 1.3534656649 1.3546005883 1.3550139616 1.3547491871 1.3538543915 1.3523821752 1.3503893239 
1.3479364705 1.345087694 1.3419100475 1.3384730057 1.3348478287 1.4974754132 1.5089097649 1.5196036573 1.5295724045 
1.538838532 1.5474316371 1.55538818 1.5627511978 1.5695699324 1.5758993653 1.5817996511 1.5873354469 1.5925751358 
1.5975899483 1.602452987 1.6072381688 1.4647897099 1.4722595368 1.4789276843 1.4848123348 1.4899384059 1.4943374188 
1.4980473265 1.5011122933 1.5035824153 1.5055133699 1.5069659843 1.5080057123 1.5087020135 1.5091276301 1.5093577618 
1.5094691448 1.4543966758 1.4608064787 1.4664254224 1.4712703375 1.4753647412 1.4787387076 1.4814287012 1.4834773664 
1.4849332632 1.4858505382 1.4862885199 1.4863112288 1.4859867922 1.4853867611 1.4845853261 1.4836584352 1.2822348857 
1.2833805804 1.283728923 1.2833010859 1.2821231946 1.2802260936 1.2776451277 1.2744199351 1.2705942491 1.2662156994 
1.2613356019 1.2560087242 1.2502930132 1.2442492722 1.2379407745 1.2314328056 1.2171048623 1.2193706141 1.2208244921 
1.2214885265 1.221389389 1.2205581496 1.2190300513 1.2168442988 1.2140438582 1.2106752582 1.2067883821 1.2024362408 
1.197674712 1.1925622364 1.1871594586 1.1815288051 0.80234613922 0.79114928199 0.7799023879 0.76859647492 0.75722446251 
0.74578132064 0.73426416069 0.7226722721 0.71100711008 0.69927224031 0.68747324726 0.6756176124 0.66371456846 0.65177493556 
0.63981094415 0.62783604947 0.73458776194 0.7227097991 0.71079948945 0.69885983978 0.68689447221 0.67490752804 0.66290355288 
0.65088737138 0.63886396026 0.62683832733 0.61481540363 0.60279995443 0.59079651351 0.5788093441 0.56684242806 0.55489948433 
0.75128722927 0.74020034793 0.7287913024 0.71708918596 0.70512412909 0.69292697681 0.6805289763 0.66796147876 0.65525565949 
0.64244225929 0.62955134996 0.61661212605 0.60365272477 0.59070007512 0.57777977709 0.56491601079 1.1880022348 1.1894498158 