# vtk DataFile Version 5.1
vtk output
ASCII
DATASET POLYDATA
POINTS 252 float
-0.61886 -0.499452 0.272096 -0.68739 -0.442605 0.312741 -0.49031 -0.484616 0.232021 
-0.528171 -0.477211 0.09426 -0.426171 -0.480158 0.096266 -0.460989 -0.446732 0.283777 
-0.636222 -0.432733 0.341267 -0.433858 -0.412712 0.28338 -0.573868 -0.437758 0.190543 
-0.348883 -0.450265 0.172888 -0.401763 -0.394531 0.031831 -0.696721 -0.330828 0.220369 
-0.521604 -0.394286 0.045227 -0.599771 -0.312836 0.253298 -0.305653 -0.389887 0.150499 
-0.4731 -0.307805 0.073742 -0.586137 -0.338469 0.173033 -0.285175 -0.399178 0.070814 
-0.397655 -0.359858 0.198593 -0.524742 -0.284703 0.212133 -0.338417 -0.348387 0.196249 
-0.288102 -0.314952 0.126404 -0.388491 -0.280736 0.114741 -0.36001 -0.355495 -0.026924 
-0.224093 -0.321988 -0.043906 -0.21675 -0.333118 0.097191 -0.403839 -0.274444 0.039013 
-0.200322 -0.242532 -0.096196 -0.279823 -0.299906 -0.093243 -0.365247 -0.238406 -0.090878 
0.115084 -0.316348 -0.125904 0.420354 -0.313114 0.077697 0.571349 -0.352575 0.088418 
0.200408 -0.327301 -0.066354 0.192741 -0.331294 -0.176765 0.605616 -0.292048 0.29947 
-0.248784 -0.167319 0.094945 0.658933 -0.31312 0.059993 -0.386815 -0.223358 -0.01701 
-0.178446 -0.235472 -0.180705 0.534068 -0.315978 0.144798 0.598575 -0.276727 0.20341 
0.432593 -0.306205 -0.037245 -0.481612 -0.156212 -0.088352 0.517328 -0.308614 -0.03633 
-0.161122 -0.215576 -0.013084 0.219468 -0.27068 -0.241347 -0.326015 -0.178658 0.092562 
0.199187 -0.202442 0.040159 0.338819 -0.300546 -0.072666 0.328806 -0.176615 0.05723 
0.30308 -0.244386 0.023274 -0.169611 -0.192759 0.042019 0.684519 -0.333576 0.106758 
0.054673 -0.25672 -0.177018 0.367958 -0.273058 0.020427 -0.34944 -0.114469 0.129512 
-0.094693 -0.215467 -0.161495 -0.408762 -0.17181 0.017446 0.645144 -0.298871 0.330657 
-0.321435 -0.219661 -0.222514 -0.465102 -0.006358 0.199909 -0.137637 -0.180116 -0.286443 
-0.522736 0.014264 0.095806 -0.400768 -0.144697 -0.29505 -0.537627 0.040122 0.278673 
0.084044 -0.206727 -0.054755 -0.060864 -0.143402 0.027703 0.116255 -0.244553 -0.28149 
0.459398 -0.226191 -0.088824 0.485095 -0.199886 0.169097 0.006292 -0.219399 -0.232652 
-0.440773 -0.020136 0.124832 0.252329 -0.17417 -0.235918 0.564782 -0.217219 -0.051564 
0.596206 -0.20764 0.318293 -0.240876 -0.142238 -0.342463 0.763572 -0.266139 0.148012 
0.366262 -0.246353 -0.138493 0.006732 -0.153203 -0.053151 0.620674 -0.190863 0.169879 
0.694201 -0.223608 0.107031 -0.271522 -0.035319 0.12173 -0.506634 -0.120146 -0.209189 
-0.464549 0.027541 0.293823 0.31669 -0.15283 -0.155028 -0.351515 -0.036427 0.204279 
0.710546 -0.157368 0.269523 0.629307 -0.151534 0.24817 0.495069 -0.151851 0.137314 
-0.090828 -0.060825 0.107254 -0.021817 -0.179468 -0.304463 -0.491575 0.049782 0.134443 
0.648443 -0.140545 0.325828 0.265286 -0.102816 0.017219 0.377946 -0.127823 0.055914 
0.09803 -0.135036 -0.328943 -0.575761 -0.006423 -0.064578 -0.238136 0.045055 0.370198 
-0.275085 0.011281 0.287671 -0.361364 0.039919 0.305023 -0.120158 -0.126735 -0.327637 
-0.416673 -0.034247 -0.356111 0.407332 -0.125645 -0.027422 0.558576 -0.134999 0.038549 
0.068306 -0.079786 -0.353873 -0.167366 0.039127 0.312695 0.236063 -0.084106 -0.134201 
0.171402 -0.134501 -0.31326 0.222329 -0.154218 -0.469085 -0.271691 0.008992 0.19018 
0.321566 -0.093241 -0.072464 0.222415 -0.105747 -0.345025 0.165172 -0.127338 -0.394686 
-0.196343 0.106634 0.425663 0.202926 -0.132846 -0.568321 -0.550524 0.041738 -0.241602 
-0.150812 0.056774 0.08455 -0.061048 0.019266 0.055684 0.165337 -0.093607 -0.0411 
-0.507423 0.029188 0.201636 0.166007 -0.136036 -0.475861 -0.138524 0.098714 0.262482 
-0.019755 -0.074911 0.02901 0.249156 -0.103668 -0.457973 -0.099735 0.004637 -0.368629 
-0.270971 -0.02607 -0.386965 0.240485 -0.031933 -0.116673 0.047572 0.042479 0.001694 
0.199092 -0.06921 -0.503098 0.19532 -0.065988 -0.263664 0.51402 -0.048628 -0.009998 
0.149478 -0.045524 -0.368381 0.182513 -0.035179 -0.344724 0.29232 -0.020681 -0.072984 
-0.223631 0.187098 0.286782 0.566641 -0.042397 -0.061898 -0.422933 0.160148 -0.328248 
0.444427 -0.000412 -0.086603 0.27801 0.019668 -0.173841 -0.484351 0.172673 0.194313 
-0.150487 0.116107 0.376476 -0.177251 0.085954 0.190498 -0.150175 0.068508 -0.387087 
0.35391 0.026705 -0.004117 -0.263967 0.131667 0.333231 -0.319083 0.181094 0.304599 
-0.57274 0.1464 -0.109926 0.696649 -0.013487 0.11599 0.600478 -0.019163 0.090152 
0.199956 0.019283 -0.067844 -0.534425 0.146693 0.112636 -0.514744 0.201085 0.082891 
0.282729 0.050596 -0.306881 -0.324529 0.062707 -0.394259 -0.444883 0.209103 0.161286 
0.268078 0.010709 -0.281778 0.335934 -0.018447 -0.132364 0.676607 0.066359 0.32153 
-0.379699 0.246226 0.072925 -0.430428 0.152785 0.254999 0.757099 -0.004264 0.069387 
0.423637 0.031958 0.047532 -0.316715 0.247471 0.151738 0.424018 0.028952 -0.186654 
-0.264414 0.154896 -0.382729 0.614501 0.052887 -0.091666 0.09356 0.04794 -0.355 
-0.43217 0.231596 0.243653 0.645239 0.015992 0.182 0.806358 0.059155 0.115078 
-0.03427 0.137745 0.058682 0.152773 0.090094 -0.097434 0.335555 0.090218 0.016398 
0.016549 0.114594 -0.050501 0.198789 0.102372 -0.341725 -0.535484 0.290377 0.24413 
-0.090416 0.078861 -0.341341 0.655486 0.103444 0.154484 -0.496705 0.195498 -0.231249 
0.541152 0.070387 0.120842 -0.105251 0.164878 0.088386 0.74982 -0.021038 0.19835 
-0.520869 0.196184 -0.005691 0.608291 0.145981 0.079279 0.212918 0.13536 -0.054316 
0.021483 0.144227 -0.27257 0.751274 0.061782 0.032123 -0.057728 0.225523 0.017592 
-0.052252 0.165114 -0.237008 0.421449 0.139598 -0.029038 0.002414 0.159907 -0.124137 
0.375127 0.114355 -0.248158 -0.407264 0.286544 -0.115322 0.721892 0.161568 0.273841 
0.718686 0.105309 0.282698 0.523044 0.089467 -0.113535 0.626581 0.132672 -0.046223 
0.677871 0.114464 0.129822 -0.113622 0.20093 -0.305522 0.785517 0.107827 0.104913 
-0.238154 0.215488 0.094068 -0.252159 0.296422 0.067158 0.428948 0.111028 0.055327 
0.486739 0.129045 -0.087777 0.107381 0.148661 -0.156944 -0.308586 0.237497 -0.321781 
-0.102506 0.277505 -0.138389 -0.336767 0.319524 -0.01427 0.19816 0.218962 -0.156065 
0.721899 0.113383 0.070701 0.303425 0.188056 -0.058523 0.336195 0.20491 -0.148871 
0.103649 0.175657 -0.238909 0.546418 0.181182 -0.034082 0.184388 0.186056 -0.305196 
-0.147223 0.288597 0.02242 -0.092609 0.265592 -0.039712 0.339633 0.176333 -0.227653 
-0.289407 0.332312 -0.084298 0.190163 0.228461 -0.252505 -0.21431 0.323973 0.019816 
-0.294402 0.305887 -0.239679 -0.232752 0.311065 -0.18667 -0.138368 0.283084 -0.188937 
-0.050689 0.33602 0.028793 -0.03243 0.33536 -0.012143 0.010381 0.488732 0.314306 
0.068062 0.390258 -0.008702 -0.068814 0.363474 0.144148 -0.091179 0.436292 -0.114289 
-0.206002 0.401408 -0.150386 0.052871 0.383763 0.221686 0.009992 0.41201 0.343039 
0.09783 0.453737 0.340478 -0.229313 0.412677 -0.041764 -0.140214 0.408703 0.048161 
-0.00519 0.439333 0.22498 0.127515 0.428852 0.064312 0.112435 0.550066 0.303867 
-0.128391 0.45565 0.010661 -0.082979 0.535203 0.081833 0.146116 0.469269 0.178461 
0.005709 0.452037 -0.067578 0.195286 0.542329 0.283613 -0.073235 0.472325 -0.050635 
-0.051191 0.524546 0.163006 0.098731 0.506283 0.077467 0.016475 0.50006 0.19357 
0.02224 0.556273 0.111813 -0.011555 0.546869 0.018659 0.088587 0.522274 0.157309 

POLYGONS 501 1500
OFFSETS vtktypeint64
0 3 6 9 12 15 18 21 24 
27 30 33 36 39 42 45 48 51 
54 57 60 63 66 69 72 75 78 
81 84 87 90 93 96 99 102 105 
108 111 114 117 120 123 126 129 132 
135 138 141 144 147 150 153 156 159 
162 165 168 171 174 177 180 183 186 
189 192 195 198 201 204 207 210 213 
216 219 222 225 228 231 234 237 240 
243 246 249 252 255 258 261 264 267 
270 273 276 279 282 285 288 291 294 
297 300 303 306 309 312 315 318 321 
324 327 330 333 336 339 342 345 348 
351 354 357 360 363 366 369 372 375 
378 381 384 387 390 393 396 399 402 
405 408 411 414 417 420 423 426 429 
432 435 438 441 444 447 450 453 456 
459 462 465 468 471 474 477 480 483 
486 489 492 495 498 501 504 507 510 
513 516 519 522 525 528 531 534 537 
540 543 546 549 552 555 558 561 564 
567 570 573 576 579 582 585 588 591 
594 597 600 603 606 609 612 615 618 
621 624 627 630 633 636 639 642 645 
648 651 654 657 660 663 666 669 672 
675 678 681 684 687 690 693 696 699 
702 705 708 711 714 717 720 723 726 
729 732 735 738 741 744 747 750 753 
756 759 762 765 768 771 774 777 780 
783 786 789 792 795 798 801 804 807 
810 813 816 819 822 825 828 831 834 
837 840 843 846 849 852 855 858 861 
864 867 870 873 876 879 882 885 888 
891 894 897 900 903 906 909 912 915 
918 921 924 927 930 933 936 939 942 
945 948 951 954 957 960 963 966 969 
972 975 978 981 984 987 990 993 996 
999 1002 1005 1008 1011 1014 1017 1020 1023 
1026 1029 1032 1035 1038 1041 1044 1047 1050 
1053 1056 1059 1062 1065 1068 1071 1074 1077 
1080 1083 1086 1089 1092 1095 1098 1101 1104 
1107 1110 1113 1116 1119 1122 1125 1128 1131 
1134 1137 1140 1143 1146 1149 1152 1155 1158 
1161 1164 1167 1170 1173 1176 1179 1182 1185 
1188 1191 1194 1197 1200 1203 1206 1209 1212 
1215 1218 1221 1224 1227 1230 1233 1236 1239 
1242 1245 1248 1251 1254 1257 1260 1263 1266 
1269 1272 1275 1278 1281 1284 1287 1290 1293 
1296 1299 1302 1305 1308 1311 1314 1317 1320 
1323 1326 1329 1332 1335 1338 1341 1344 1347 
1350 1353 1356 1359 1362 1365 1368 1371 1374 
1377 1380 1383 1386 1389 1392 1395 1398 1401 
1404 1407 1410 1413 1416 1419 1422 1425 1428 
1431 1434 1437 1440 1443 1446 1449 1452 1455 
1458 1461 1464 1467 1470 1473 1476 1479 1482 
1485 1488 1491 1494 1497 1500 
CONNECTIVITY vtktypeint64
233 232 234 227 233 234 234 242 244 
251 239 244 35 59 75 75 59 93 
93 59 87 178 158 194 158 195 194 
234 244 239 234 239 227 105 91 101 
60 83 64 76 60 64 60 76 62 
60 62 39 143 165 199 165 154 137 
143 154 165 102 116 137 154 102 137 
126 102 154 126 154 143 125 126 143 
129 121 132 124 115 129 109 115 124 
112 109 124 76 102 126 101 126 125 
76 126 101 64 83 102 76 64 102 
121 115 109 115 121 129 164 192 196 
151 159 152 174 128 172 128 150 172 
150 173 185 138 157 164 166 136 196 
138 164 196 136 138 196 128 174 118 
119 150 128 119 127 150 134 150 127 
157 134 139 134 157 138 63 92 151 
63 151 97 123 119 128 123 79 119 
119 107 127 111 107 119 94 111 119 
85 111 103 69 85 103 63 72 92 
63 58 72 67 79 123 66 119 79 
119 48 94 119 66 48 44 69 74 
58 56 72 58 47 56 47 36 56 
15 22 26 23 15 26 118 174 171 
190 204 212 217 226 225 117 90 118 
117 118 181 151 140 155 161 136 166 
138 131 144 131 138 136 134 138 144 
144 162 173 150 134 144 144 173 150 
181 118 171 181 171 188 117 181 201 
142 117 201 163 142 201 155 163 159 
140 176 155 151 155 159 166 196 197 
173 190 211 185 173 211 201 181 188 
201 188 216 163 201 202 201 216 202 
159 163 202 159 202 208 214 196 204 
197 196 214 204 190 214 216 217 225 
202 216 221 221 216 236 225 226 228 
216 225 236 225 229 236 23 10 15 
25 24 45 17 24 25 12 16 15 
10 12 15 23 17 10 17 23 24 
3 16 12 10 3 12 10 4 3 
4 10 17 224 231 230 224 223 231 
207 224 230 222 193 219 222 179 193 
223 219 231 219 223 222 224 199 223 
207 189 224 189 199 224 215 213 220 
213 209 220 215 220 218 192 215 218 
179 183 193 179 147 183 186 191 213 
189 191 186 191 205 213 164 153 192 
164 156 153 157 139 156 130 156 139 
127 130 139 127 107 130 107 73 130 
130 73 108 78 46 73 192 175 215 
153 175 192 13 18 19 18 7 20 
14 21 20 9 17 14 0 1 11 
2 9 5 20 9 14 7 9 20 
7 5 9 0 8 2 2 8 3 
235 245 230 235 240 245 243 230 245 
228 243 238 235 221 236 228 226 243 
208 202 221 208 221 219 188 191 217 
209 211 212 211 190 212 183 152 208 
152 159 208 188 217 216 171 174 188 
174 191 188 185 211 209 204 192 212 
196 192 204 150 185 172 45 67 52 
36 52 67 67 123 90 74 69 103 
128 118 123 11 6 13 16 13 19 
16 11 13 19 18 22 18 20 22 
32 31 42 32 44 37 37 44 74 
32 42 44 42 31 55 51 50 48 
55 50 51 48 50 94 50 95 94 
90 36 67 36 90 82 82 90 117 
56 36 82 72 56 86 86 56 110 
110 56 82 72 61 92 81 74 104 
104 74 103 95 111 94 95 103 111 
90 123 118 110 82 117 61 120 92 
92 120 140 92 140 151 33 51 48 
49 55 51 51 33 49 49 42 55 
44 42 69 26 22 47 47 21 36 
21 25 36 36 25 52 25 45 52 
15 16 19 15 19 22 22 21 47 
22 20 21 14 25 21 16 8 11 
14 17 25 3 8 16 0 11 8 
9 4 17 9 2 4 2 3 4 
231 235 230 226 207 230 193 208 219 
193 183 208 219 235 231 219 221 235 
226 217 207 212 220 209 212 192 218 
191 207 217 191 189 207 42 78 69 
213 205 209 212 218 220 174 205 191 
205 172 209 172 185 209 174 172 205 
157 156 164 183 151 152 183 97 151 
97 183 147 127 139 134 111 85 107 
85 73 107 43 63 97 78 73 85 
69 78 85 43 58 63 58 38 47 
57 79 67 67 27 57 45 27 67 
79 54 66 30 48 66 30 33 48 
54 30 66 42 49 78 38 26 47 
23 26 38 45 24 27 33 34 49 
43 38 58 54 57 71 57 54 79 
100 86 99 168 146 163 53 37 77 
32 53 41 40 32 41 70 40 41 
40 70 31 77 37 81 80 81 104 
70 80 89 89 80 104 120 84 65 
122 106 142 106 99 110 100 99 98 
122 142 135 146 100 145 160 100 146 
182 161 170 161 187 170 162 180 203 
146 145 135 160 146 168 30 54 34 
34 46 78 49 34 78 29 23 38 
28 29 60 24 28 27 33 30 34 
28 23 29 28 24 23 199 222 223 
177 189 186 167 177 186 167 186 215 
186 213 215 175 167 215 156 130 153 
116 147 179 130 112 133 116 97 147 
83 97 116 108 112 130 91 57 62 
68 71 96 83 43 97 71 57 91 
34 54 68 46 34 68 28 60 39 
153 167 175 133 167 130 108 68 96 
71 91 96 73 46 108 108 46 68 
60 43 83 43 29 38 29 43 60 
57 39 62 57 27 39 54 71 68 
27 28 39 206 179 222 222 199 206 
137 179 206 199 165 206 189 177 199 
199 177 143 125 143 177 137 116 179 
125 177 167 105 125 167 130 167 153 
133 132 167 105 167 132 113 105 132 
129 132 133 124 129 133 112 124 133 
121 113 132 83 116 102 105 101 125 
113 96 105 113 109 112 113 108 96 
113 112 108 62 76 101 91 62 101 
96 91 105 165 137 206 121 109 113 
250 249 247 250 241 249 241 246 249 
251 247 249 170 187 200 187 210 200 
198 210 184 180 178 198 203 180 184 
184 180 198 176 160 168 229 232 237 
232 238 242 238 247 242 229 237 246 
246 237 248 242 247 251 248 251 249 
246 248 249 59 35 53 41 53 35 
59 53 77 41 35 75 77 81 87 
81 80 88 81 88 87 41 75 88 
41 88 80 70 41 80 99 106 98 
114 98 106 182 169 148 141 106 122 
100 98 145 182 148 161 236 246 241 
236 229 246 232 228 238 232 229 225 
225 228 232 203 184 214 210 197 214 
214 184 210 155 176 168 173 203 190 
190 203 214 187 197 210 166 197 187 
161 166 187 140 160 176 168 163 155 
146 135 163 135 142 163 162 203 173 
131 162 144 131 149 162 149 180 162 
148 136 161 140 120 160 149 136 148 
149 131 136 65 160 120 65 84 160 
84 100 160 110 142 106 95 70 89 
110 117 142 95 89 103 198 178 194 
195 200 194 182 170 195 169 158 178 
158 182 195 114 141 135 145 114 135 
98 114 145 158 169 182 114 106 141 
87 88 93 75 93 88 87 59 77 
227 239 248 248 239 251 244 242 251 
237 227 248 237 233 227 234 232 242 
232 233 237 198 194 200 198 200 210 
195 170 200 180 169 178 149 148 169 
141 122 135 149 169 180 103 89 104 
55 31 50 72 86 61 236 240 235 
240 236 241 238 243 247 247 243 250 
245 241 250 243 245 250 245 240 241 
6 0 5 0 2 5 1 0 6 
13 5 7 18 13 7 6 5 13 
11 1 6 32 40 31 32 37 53 
50 31 70 37 74 81 95 50 70 
99 86 110 84 61 86 84 86 100 
120 61 84 243 226 230 
POINT_DATA 252
SCALARS k float
LOOKUP_TABLE default
1.06491 1.41833 -0.1811 0.919667 0.364334 0.0570478 1.04725 0.489964 -0.621233 
0.371628 -0.569128 2.28093 0.810289 0.0160081 -0.218318 -0.277447 -0.689287 -0.0366782 
0.0596179 0.419375 0.206908 -0.422925 -0.997419 -0.0597961 0.310244 0.493473 -0.764721 
-0.225576 -0.402982 -0.371052 0.460891 0.480294 0.321268 0.418308 0.457711 0.611817 
-0.345113 0.061509 -0.838052 -0.0776069 0.108024 -1.6628 -0.307925 0.102567 0.300187 
-0.301388 0.216394 -1.02556 0.574127 -0.373294 -0.455323 -0.162525 -0.498368 0.280295 
-0.445882 -0.436199 -0.324314 -0.434047 -0.00331986 1.76531 0.0239428 0.0869613 -0.113752 
0.250682 0.185897 2.58813 -0.436238 0.0357018 0.306374 -0.33717 0.335981 -0.206463 
-0.288254 -0.158587 0.529031 0.841287 0.197376 1.46865 -0.167572 -0.546034 -1.63233 
-0.236151 -0.0995555 0.339456 0.180203 -0.0603762 -0.491508 0.87476 0.378554 0.211958 
0.553672 0.0847337 -0.639432 1.93551 0.21267 -0.212886 -0.58616 0.247781 0.10817 
-0.0967118 -0.429588 -0.0811256 0.286473 -0.250084 0.408513 -0.292929 0.607367 -1.32614 
-1.31222 0.740018 -0.164607 0.142518 0.0172132 -1.276 2.31427 3.6842 0.358901 
-0.877626 -0.405057 -1.45901 -0.439741 0.461768 0.710771 -0.286195 0.734375 -0.200627 
0.0809977 -1.40355 0.0478989 0.759905 -1.43083 0.336079 -1.23349 -0.412353 -0.0784628 
0.0182551 0.588978 0.204163 -0.77022 0.546538 -1.38819 0.910338 -1.11681 0.191465 
-0.340398 -0.413461 0.113937 0.402777 -0.117363 -0.0827618 -1.02894 -0.0741698 0.449895 
0.208848 0.156791 -0.931596 -0.43568 -0.0123062 2.44654 -0.107708 -0.82781 0.363259 
0.0481903 -0.591002 0.180688 0.217028 0.407594 -0.687052 -0.853549 -0.682436 0.823494 
0.431128 -0.467984 -0.170051 -0.477791 0.216171 4.31489 -0.293419 -0.605991 0.257085 
-0.170831 0.228862 1.05665 -0.104299 0.120692 0.245989 -0.29523 0.124533 0.242653 
-0.425278 -0.509054 -0.49941 0.113174 0.0864348 2.12619 0.0387422 -0.709476 0.216139 
-0.437089 0.324186 0.485278 -0.252978 -0.0902667 0.0966994 -0.491725 -0.395554 0.161475 
-0.474803 0.153049 0.232996 -0.206978 0.284227 0.109448 -0.291941 0.722521 0.259756 
-0.974597 -1.16214 0.217222 -0.666191 0.634514 -0.918234 0.33464 -0.642147 -0.454082 
-0.830395 -0.581409 0.723603 0.470131 0.57381 -0.150096 0.599384 -0.23557 2.1666 
0.674599 0.406126 -0.902075 -1.00432 0.566756 0.765613 -0.418889 0.51741 -0.352686 
0.290775 2.55038 -0.172334 0.632137 0.259266 -0.681662 0.358108 0.539457 -0.62269 

FIELD FieldData 7
h 1 252 float
7.49627 3.67246 3.19541 1.80015 3.01536 2.3144 1.26503 -0.747034 1.01111 
4.8918 0.0476671 0.651395 1.7056 -2.57546 0.696298 -0.314148 0.591358 2.68957 
0.229436 -1.78834 -0.350587 0.504316 -1.33319 0.0948654 1.98395 0.579006 -0.43195 
1.83008 0.592359 1.22954 1.6959 0.379968 3.33334 2.44717 1.65343 1.92699 
-0.217059 9.21863 0.669972 1.11693 1.09115 1.2072 1.86893 2.52214 3.33393 
2.1659 2.2431 0.245807 1.44297 1.8711 1.49964 2.1926 -0.317439 2.86113 
1.23279 1.12976 0.610563 1.15279 2.98561 3.55415 1.67628 2.44768 0.917392 
2.89458 2.03609 4.20519 1.40089 1.17896 1.75712 1.83698 2.24681 0.785061 
2.55338 1.34738 4.20485 4.21258 2.10366 9.86712 2.10719 1.12799 1.25916 
2.06452 -0.298043 3.25203 4.35699 -0.0396115 2.0297 4.45269 2.54533 2.00787 
0.190394 1.41346 3.36578 10.86 0.31743 0.645873 1.69545 3.69228 2.27042 
0.378259 5.08938 2.45067 3.71048 0.046261 2.01206 2.66491 0.653908 -0.17368 
3.0731 0.760864 -0.548512 0.0982112 0.907021 -0.81432 5.61372 9.07792 4.7054 
-0.591804 -0.235571 -0.646089 3.06977 1.37569 1.14789 0.0268772 1.14212 2.57631 
2.74823 0.360275 -0.195376 -0.0264329 2.85598 1.62057 1.80444 0.884554 0.0537246 
0.507642 2.80516 3.97648 -0.21025 -0.29813 2.88058 0.709316 -0.127211 2.33654 
-0.0275877 3.63017 4.46245 3.96608 3.70443 2.92887 -0.667021 3.33691 2.17356 
1.66147 3.54006 1.28166 -0.159167 -0.917739 5.10491 2.5449 5.83224 4.85776 
-0.730038 2.36322 1.05995 2.49899 2.6695 2.3072 2.8349 2.73196 16.2979 
-0.215958 0.0227572 0.766127 0.312579 2.6175 6.27902 0.903683 1.36292 3.33282 
1.90229 -0.162008 4.46202 3.31494 0.588438 0.293704 0.61538 4.81482 1.14734 
0.385341 1.21471 0.353404 2.32539 2.70609 3.4801 6.04433 1.79988 4.30326 
2.26274 1.08098 2.99259 0.0782525 2.59046 2.1921 1.6137 1.24366 2.12723 
-0.448425 2.17646 1.55377 3.52392 1.93995 2.13487 0.708861 2.12897 1.83712 
-1.05858 -0.646702 1.89443 1.99181 2.03215 0.96927 1.93948 1.51711 0.818946 
-1.59292 1.37563 -0.907091 -0.339399 0.0573023 0.759138 2.1245 -0.527813 1.40219 
-0.441047 1.61849 1.08611 3.28934 1.53593 0.796791 1.69169 1.6769 0.761697 
0.0620791 1.08024 2.26838 0.316103 2.55836 -0.0592035 2.95151 2.44334 3.83442 

kmin 1 252 float
12.3724 7.0112 6.64184 4.70745 6.6841 5.09247 3.32677 0.747688 2.39285 
10.4342 1.27826 2.16534 4.7527 -0.808316 1.78564 0.769765 4.79551 5.38395 
1.18664 -0.50815 0.153133 0.927327 0.325227 1.31989 4.95816 1.16832 0.892249 
4.62423 1.24441 2.80955 4.46513 1.92275 7.20331 5.67072 2.23396 5.35863 
0.103278 17.6845 1.86113 1.81353 3.14076 2.69562 3.35594 3.67953 5.87522 
5.06757 3.32426 1.6905 4.02709 3.54799 4.57498 5.56735 0.261494 5.4084 
2.0541 3.55574 0.875335 2.42934 4.03586 5.89863 2.00241 3.68719 1.71894 
3.27269 2.60051 6.95916 4.12991 3.21725 2.35005 3.34157 5.60062 1.5211 
3.71825 2.24968 8.60814 11.4615 2.32178 15.5516 3.45753 3.20196 4.18862 
4.79186 -0.137056 4.06585 6.96346 1.02697 2.92024 7.29912 6.89491 5.46384 
0.552749 2.19338 4.34694 25.467 2.50583 2.90992 2.04963 5.79329 4.38033 
2.48112 6.91777 3.77574 4.37099 0.572082 4.62649 3.99861 1.50617 0.323882 
5.53012 1.70605 0.749975 1.07146 1.55287 0.304304 6.79731 11.3015 5.06719 
-0.243265 0.562458 0.566223 4.15086 2.74654 2.96378 1.14504 1.62517 4.07664 
4.38397 1.71956 1.18777 1.83366 5.82477 4.04097 3.39199 1.40669 1.41928 
2.386 5.17829 4.5964 0.627763 1.49084 3.88202 3.41942 1.04259 3.29696 
1.74173 4.58434 5.83415 4.62491 7.32949 7.75909 0.86945 3.59518 4.2771 
2.31614 4.98069 1.68249 1.30693 0.834159 11.5415 4.23622 6.42259 9.57279 
0.150168 3.9634 1.53812 3.33779 4.68644 3.23924 5.01112 6.18554 28.9119 
0.411918 1.78506 2.91946 2.03798 4.02544 9.00747 1.72305 3.756 4.54764 
5.03686 -0.081372 8.54523 5.05729 2.12527 1.89056 1.4947 9.37766 2.81943 
1.0704 3.90824 0.853457 3.56969 4.20478 7.97631 15.9681 3.30953 7.7123 
4.57271 1.83496 6.01598 0.442379 4.32249 5.4404 2.90346 3.05993 2.8134 
1.68455 3.88556 5.13942 6.83618 5.09241 4.0694 0.949225 4.42694 2.45857 
-0.325271 1.82622 2.80546 3.21754 3.93577 1.90419 2.9741 2.23898 1.14304 
0.651359 3.49171 -0.578576 -0.211951 2.1001 1.51814 2.86848 -0.0965121 5.25104 
0.0553481 2.23069 2.51173 8.21068 4.42457 2.18599 3.10355 3.84958 3.21608 
2.07782 2.96319 4.05439 2.17799 5.32842 0.964432 6.68119 4.45468 7.87402 

kmax 1 252 float
2.62012 0.333708 -0.251015 -1.10715 -0.653379 -0.46368 -0.796714 -2.24176 -0.370635 
-0.650563 -1.18292 -0.86255 -1.3415 -4.3426 -0.393049 -1.39806 -3.6128 -0.00481353 
-0.72777 -3.06852 -0.854307 0.0813049 -2.99161 -1.13016 -0.990248 -0.0103097 -1.75615 
-0.964075 -0.0596912 -0.350479 -1.07334 -1.16281 -0.536628 -0.776371 1.0729 -1.50465 
-0.537396 0.752807 -0.521183 0.420336 -0.958459 -0.281219 0.381921 1.36475 0.792638 
-0.735758 1.16193 -1.19888 -1.14115 0.194211 -1.5757 -1.18216 -0.896371 0.31386 
0.411469 -1.29622 0.345792 -0.123754 1.93535 1.20966 1.35014 1.20817 0.115844 
2.51648 1.47167 1.45121 -1.32813 -0.85933 1.16418 0.332386 -1.107 0.0490174 
1.3885 0.445089 -0.198447 -3.03637 1.88554 4.18264 0.756847 -0.945982 -1.6703 
-0.662821 -0.459029 2.43822 1.75052 -1.10619 1.13915 1.60626 -1.80426 -1.4481 
-0.171962 0.633546 2.38461 -3.74705 -1.87097 -1.61817 1.34127 1.59127 0.160513 
-1.7246 3.26099 1.1256 3.04997 -0.47956 -0.602377 1.33121 -0.198353 -0.671243 
0.616079 -0.184317 -1.847 -0.87504 0.261168 -1.93294 4.43013 6.85438 4.3436 
-0.940343 -1.0336 -1.8584 1.98868 0.00482618 -0.667995 -1.09129 0.659061 1.07599 
1.11249 -0.99901 -1.57852 -1.88653 -0.112818 -0.799833 0.216886 0.362421 -1.31183 
-1.37072 0.432034 3.35656 -1.04826 -2.0871 1.87915 -2.00079 -1.29701 1.37612 
-1.79691 2.67599 3.09075 3.30726 0.0793642 -1.90134 -2.20349 3.07864 0.070021 
1.00681 2.09942 0.880827 -1.62526 -2.66964 -1.33166 0.853571 5.24188 0.142737 
-1.61024 0.76305 0.581774 1.66019 0.652573 1.37517 0.658676 -0.721616 3.68394 
-0.843835 -1.73954 -1.3872 -1.41282 1.20956 3.55057 0.0843131 -1.03016 2.11801 
-1.23228 -0.242643 0.378803 1.5726 -0.948393 -1.30315 -0.263936 0.251972 -0.524753 
-0.299714 -1.47882 -0.146648 1.0811 1.20741 -1.01611 -3.87944 0.290222 0.89421 
-0.0472346 0.326995 -0.0308033 -0.285874 0.858427 -1.05621 0.323936 -0.572614 1.44105 
-2.5814 0.467364 -2.03187 0.21165 -1.21251 0.200346 0.468497 -0.169008 1.21567 
-1.79189 -3.11962 0.983408 0.766082 0.128519 0.0343547 0.904862 0.795234 0.494857 
-3.83719 -0.740442 -1.23561 -0.466848 -1.98549 0.000139838 1.38052 -0.959113 -2.44667 
-0.937443 1.0063 -0.339512 -1.63201 -1.35271 -0.592404 0.279828 -0.495776 -1.69268 
-1.95367 -0.802716 0.482374 -1.54578 -0.211698 -1.08284 -0.778172 0.431991 -0.205179 

hks 16 252 double
0.63403190634 0.64116799194 0.64823375803 0.65522623831 0.66214276849 0.66898092647 0.67573847506 0.6824133086 0.68900340436 
0.69550677927 0.70192145226 0.70824541218 0.71447659084 0.72061284102 0.72665191867 0.73259146874 0.72173281332 0.72613794635 
0.73050572857 0.73484019665 0.73914541063 0.74342533656 0.74768373458 0.75192405448 0.75614934045 0.76036214657 0.76456446386 
0.76875766001 0.77294243176 0.77711877052 0.78128594072 0.78544247069 0.46009728535 0.46761700143 0.4752825958 0.48307843145 
0.49098795524 0.49899382669 0.50707806078 0.51522218259 0.52340739107 0.531614729 0.5398252554 0.54802021673 0.55618121294 
0.56429035451 0.57233040664 0.58028491758 0.44085946483 0.44551833833 0.45036000085 0.45538632701 0.4605972233 0.46599054374 
0.47156204578 0.47730538838 0.48321217241 0.48927202264 0.49547270925 0.50180030536 0.50823937609 0.51477319399 0.52138397433 
0.52805312393 0.38601365511 0.38857220926 0.39140948152 0.39452478809 0.39791544739 0.40157670385 0.40550169074 0.4096814349 
0.41410490472 0.41875910104 0.42362918915 0.42869866827 0.43394957364 0.43936270509 0.44491787514 0.45059416903 0.49587359519 
0.50398659306 0.51217789902 0.52043040292 0.52872701164 0.53705073433 0.54538476664 0.55371257421 0.56201797519 0.57028522134 
0.57849907654 0.58664489158 0.59470867348 0.60267714768 0.6105378112 0.61827897532 0.67490064581 0.68044660597 0.68595594658 
0.69142786199 0.69686184891 0.70225762653 0.70761505341 0.71293404321 0.7182144816 0.7234561463 0.72865863217 0.73382128302 
0.7389431316 0.74402284891 0.74905870354 0.75404853167 0.40706842042 0.41182917475 0.41682807248 0.42205939387 0.42751529718 
0.43318585816 0.43905914957 0.4451213596 0.45135694668 0.45774882712 0.46427859069 0.47092673855 0.47767293704 0.48449628043 
0.49137555567 0.49828950208 0.53022829361 0.53818840041 0.5462379244 0.55435754611 0.56252810038 0.57073070671 0.57894688716 
0.58715867152 0.59534868978 0.60350025216 0.61159741695 0.61962504664 0.62756885265 0.63541542906 0.64315227553 0.65076780968 
0.33859920599 0.3435679362 0.34874576986 0.35412573813 0.35969883451 0.3654541187 0.37137885927 0.37745871151 0.38367792512 
0.39001957578 0.39646581385 0.40299812263 0.40959757892 0.41624510849 0.42292172949 0.42960877778 0.33539310394 0.33743236507 
0.33961249657 0.34194175851 0.34442722813 0.34707464073 0.34988825103 0.35287071896 0.35602302335 0.359344406 0.36283234817 
0.36648258032 0.37028912495 0.37424437154 0.37833918139 0.38256301946 0.61576337896 0.62326013363 0.63070902374 0.63810316492 
0.64543597186 0.65270114617 0.65989266589 0.66700477722 0.67403198836 0.68096906545 0.68781102981 0.69455315567 0.70119096748 
0.70772023573 0.71413697027 0.72043741048 0.41978155723 0.42115974687 0.42284443495 0.42483925623 0.42714576082 0.42976326226 
0.43268872288 0.43591668185 0.43943923016 0.44324603499 0.44732441419 0.45165945981 0.45623420752 0.46102984741 0.46602596978 
0.47120083868 0.47692559845 0.48463823953 0.49244587719 0.50033471288 0.50829050748 0.51629865438 0.5243442593 0.53241222669 
0.54048735191 0.54855441816 0.55659829654 0.56460404765 0.57255702231 0.58044295934 0.58824807797 0.59595916257 0.25852067968 
0.26029234913 0.26215656095 0.26411443621 0.26616652781 0.2683127895 0.27055255557 0.27288453186 0.27530679831 0.27781682306 
0.2804114873 0.2830871201 0.28583954169 0.28866411372 0.29155579456 0.29450919778 0.30535628863 0.3078746064 0.31055091219 
0.31338792672 0.31638711164 0.31954859919 0.32287114593 0.32635211207 0.32998746705 0.33377182119 0.33769848252 0.34175953695 
0.34594594922 0.3502476816 0.35465382675 0.35915275072 0.42382193736 0.4312354672 0.43878684469 0.44646319909 0.45425051643 
0.46213375201 0.47009696436 0.47812346799 0.48619600146 0.49429690688 0.50240831604 0.51051233863 0.5185912473 0.52662765494 
0.53460467948 0.54250609229 0.26742876822 0.26879375928 0.27025903222 0.2718255163 0.27349368938 0.27526355098 0.2771346002 
0.27910581963 0.28117566569 0.28334206595 0.28560242378 0.28795363006 0.29039208201 0.29291370842 0.29551400063 0.29818804846 
0.39271996708 0.39482373962 0.39719026059 0.39982698293 0.40273862116 0.40592702385 0.40939110154 0.41312681282 0.41712720898 
0.42138253647 0.42588039411 0.43060594059 0.43554214624 0.44067008148 0.44596923367 0.45141784302 0.37701271715 0.38068960123 
0.38460752795 0.38876452122 0.39315661083 0.397777794 0.40262003729 0.40767332011 0.41292571969 0.41836353574 0.42397145184 
0.4297327288 0.43562942473 0.44164263493 0.44775274481 0.45393968821 0.30516277686 0.30771623328 0.31043539746 0.31332306538 
0.31638063173 0.31960800972 0.32300357954 0.32656416731 0.33028505549 0.33416002449 0.33818142441 0.34234027464 0.34662638812 
0.3510285164 0.35553451093 0.36013149559 0.22903362762 0.2290619009 0.22914222987 0.22927676082 0.2294676581 0.22971708132 
0.2300271581 0.23039995336 0.23083743569 0.23134144209 0.23191364204 0.23255550205 0.23326825185 0.2340528531 0.23490997171 
0.23583995433 0.27645535365 0.27751795524 0.27872418948 0.28007945923 0.28158817958 0.28325367632 0.28507810078 0.28706236398 
0.28920609229 0.29150760633 0.29396392417 0.29657078887 0.29932271988 0.30221308678 0.30523420332 0.30837743864 0.21604845316 
0.21633950163 0.21666555232 0.21702702781 0.21742433469 0.21785788519 0.21832811577 0.21883550189 0.21938056804 0.21996389252 
0.22058610682 0.22124788941 0.22194995435 0.22269303518 0.22347786479 0.22430515221 0.24935879068 0.24716196676 0.24494394107 
0.24270927049 0.240462722 0.23820926474 0.2359540593 0.23370244368 0.23145991556 0.22923211073 0.22702477748 0.22484374713 
0.22269490095 0.22058413378 0.21851731508 0.21650024786 0.25665362223 0.25459861647 0.25252219649 0.25043178501 0.24833497584 
0.24623948874 0.24415312306 0.24208371003 0.24003906418 0.23802693374 0.2360549507 0.23413058066 0.23226107309 0.2304534125 
0.22871427107 0.22704996332 0.22022958897 0.22031812994 0.22049368366 0.22075738327 0.221110052 0.22155221667 0.22208412101 