# vtk DataFile Version 5.1
vtk output
ASCII
DATASET POLYDATA
POINTS 252 float
0.715831 0.354791 -0.184627 0.684992 0.414985 -0.26121 0.630827 0.292101 -0.131674 
0.648943 0.28525 -0.232778 0.52034 0.374253 -0.217485 0.623049 0.215358 -0.192024 
0.652814 0.455841 -0.187472 0.543684 0.369955 -0.12104 0.625016 0.269478 -0.033569 
0.530287 0.46153 -0.186909 0.561907 0.168554 -0.034494 0.563721 0.224818 -0.229871 
0.496181 0.112863 -0.083862 0.555111 0.240277 0.027165 0.452708 0.357074 -0.13357 
0.438166 0.311448 -0.018116 0.537978 -0.444363 -0.278662 0.551362 -0.372667 -0.30416 
0.475931 0.187059 0.032391 0.516695 -0.40075 -0.075924 0.568724 0.339323 0.000116 
0.495732 -0.292345 -0.1755 0.481577 -0.218481 -0.361277 0.462673 -0.459739 -0.387648 
0.429972 0.180021 0.096587 0.539024 -0.474651 -0.379279 0.435278 0.233607 -0.123216 
0.44098 0.130702 -0.127182 0.538818 -0.353805 -0.382496 0.437096 -0.491236 -0.118987 
0.384907 0.251203 -0.082389 0.425244 0.254724 0.056403 0.498826 -0.333553 -0.050649 
0.357368 0.262327 -0.009548 0.375211 -0.266285 -0.425984 0.368423 0.083678 -0.01576 
0.392686 -0.324935 0.06127 0.447168 -0.442198 -0.29724 0.372967 -0.370206 0.141733 
0.410655 -0.443667 0.015926 0.397501 -0.357218 -0.297731 0.379403 -0.267292 -0.183078 
0.402795 0.100007 0.0579 0.446171 -0.29326 -0.297918 0.259821 0.284375 0.157672 
0.356937 0.145962 0.152674 0.312999 -0.269453 -0.01316 0.37209 -0.282736 0.193656 
0.380999 -0.231411 -0.35755 0.339319 -0.47764 -0.130995 0.333692 -0.434755 0.086807 
0.326955 -0.27696 0.277784 0.312729 -0.317612 -0.148893 0.339033 0.145181 -0.044981 
0.325655 -0.315763 -0.398014 0.351587 -0.385209 -0.217792 0.343449 -0.193953 0.067747 
0.335169 -0.205323 0.25867 0.326865 -0.45307 -0.025694 0.254887 0.219673 0.198862 
0.265034 0.098588 0.14772 0.318969 -0.356312 0.223873 0.267479 -0.374998 -0.054856 
0.202904 0.000234 0.143564 0.237648 0.072448 0.029634 0.246924 -0.191211 0.323728 
0.215125 0.296476 0.278335 0.220987 -0.392076 0.119905 0.248487 -0.133949 0.152111 
0.170453 0.424301 0.128307 0.255827 0.300028 0.056248 0.24803 -0.315017 -0.037915 
0.228669 -0.211369 0.018565 0.231502 0.236531 -0.032863 0.203028 -0.003924 0.272378 
0.20897 -0.101152 0.280007 0.200907 -0.280832 0.357089 0.219869 -0.38051 0.222302 
0.163701 -0.0944 0.126598 0.116641 0.003929 -0.068512 0.209208 0.156739 -0.046207 
0.216767 0.103056 0.325485 0.180512 -0.344199 0.047861 0.120585 0.401708 -0.062688 
0.096773 0.407022 0.315614 0.132028 -0.014267 0.382545 0.183673 -0.145705 0.126578 
0.101271 0.432772 -0.229528 0.12972 -0.323484 0.31754 0.042971 0.132323 -0.102136 
0.157493 0.437283 0.203628 0.114506 0.422243 0.024525 0.113705 0.263268 -0.167461 
0.148689 0.311786 -0.067753 0.097881 0.044672 0.380573 0.142142 -0.059938 0.032682 
0.087693 -0.340695 0.21603 0.092175 0.341389 -0.2099 0.09174 0.252485 -0.098743 
0.124981 -0.223572 0.105117 0.096242 0.31546 0.383674 -0.006799 0.51579 0.049164 
0.079032 -0.154176 0.397914 0.095846 0.110642 0.405459 0.05676 0.400365 -0.148638 
-0.014357 0.462209 0.30996 0.05971 -0.150548 0.038646 0.064301 0.114549 -0.382421 
-0.024379 0.521007 0.147379 0.078256 0.150494 -0.258526 0.022294 0.40352 -0.198547 
0.054474 0.407945 -0.108943 0.032442 -0.283455 0.335965 0.034912 0.425022 -0.314552 
0.003497 0.476285 -0.099785 0.077673 -0.302554 0.493902 -0.027693 0.212276 0.42569 
0.061389 0.270598 -0.289754 0.048215 -0.238831 0.508636 -0.001936 0.037416 -0.046698 
0.06154 0.16928 -0.200253 0.081172 -0.226811 0.391306 0.01591 -0.197016 0.600136 
0.037871 -0.333019 0.468311 0.000149 0.098443 -0.452226 -0.00779 0.183311 -0.347476 
0.015705 -0.236236 0.461551 0.048776 -0.267009 0.596582 -0.017316 0.061899 -0.23711 
0.025795 0.063983 -0.37765 -0.074471 0.276461 -0.306322 -0.021666 -0.295195 0.493022 
-0.001571 -0.02738 -0.026327 -0.008417 -0.247293 0.513975 0.008136 -0.300302 0.100672 
-0.090693 -0.020325 -0.076093 -0.091175 0.350262 -0.287333 0.025618 -0.073131 0.411527 
-0.030144 -0.218907 0.403709 -0.013721 -0.311653 0.224664 -0.070624 0.136812 -0.139472 
-0.066376 0.315079 0.397507 -0.048229 0.044341 0.40361 -0.096943 -0.358914 0.300553 
-0.087272 0.130096 -0.26455 -0.134248 0.472129 -0.004779 -0.117339 0.455251 -0.296894 
-0.051263 -0.149307 0.04784 -0.082174 0.107032 -0.376093 -0.137839 0.437243 0.300388 
-0.079593 0.423487 -0.150439 -0.049261 -0.255688 0.102722 -0.110339 -0.074449 0.036373 
-0.086859 0.176959 -0.289835 -0.173041 0.482653 0.093852 -0.106626 -0.346335 0.073587 
-0.152574 0.217311 -0.228248 -0.133411 0.372241 -0.156528 -0.145965 0.317683 -0.224998 
-0.122391 0.4587 -0.100503 -0.081492 -0.142172 0.392018 -0.098454 -0.231601 0.09637 
-0.134009 -0.245048 0.385467 -0.144095 0.008038 0.335631 -0.154578 0.117893 -0.096624 
-0.173066 0.440977 -0.324431 -0.109193 -0.387447 0.254655 -0.161095 0.204519 -0.11854 
-0.141144 -0.167018 0.136623 -0.208681 0.051798 0.332798 -0.114069 0.076676 0.409212 
-0.22144 0.340509 -0.0553 -0.246767 0.378365 0.198372 -0.18206 -0.011786 0.246257 
-0.177847 -0.073199 0.170776 -0.205979 0.222628 -0.134233 -0.209641 -0.024756 0.075074 
-0.186472 -0.128371 0.301718 -0.274232 0.262331 0.285605 -0.240107 0.084163 -0.068151 
-0.282037 -0.197791 0.295331 -0.165334 -0.02964 -0.036931 -0.216413 -0.17221 0.121453 
-0.204636 -0.315546 -0.021158 -0.262211 0.040318 0.000546 -0.213865 -0.450033 -0.005553 
-0.224453 -0.505475 -0.098396 -0.191347 0.208362 0.387293 -0.220151 -0.410021 0.248237 
-0.225812 -0.442636 -0.164712 -0.268319 0.255511 -0.054877 -0.282458 -0.506631 -0.018209 
-0.294041 0.179187 0.251136 -0.283979 -0.293051 -0.002636 -0.286819 -0.305899 -0.073878 
-0.283965 0.306831 0.075133 -0.304214 0.23197 0.025403 -0.298637 0.147131 -0.047099 
-0.321534 0.224477 0.131222 -0.274767 0.053216 0.177158 -0.237108 -0.483807 0.107364 
-0.273714 -0.350495 0.272567 -0.312064 -0.223724 0.167203 -0.288529 -0.3412 -0.17244 
-0.238511 -0.341882 -0.417949 -0.309939 -0.38631 -0.293559 -0.289398 -0.286673 -0.365218 
-0.336431 -0.306435 0.157464 -0.304774 -0.463712 0.108918 -0.35367 0.137483 0.157651 
-0.335328 0.035651 0.129046 -0.359882 -0.418138 0.016101 -0.456957 -0.504342 -0.385765 
-0.347853 -0.338907 -0.19155 -0.338122 -0.543261 -0.109551 -0.402632 0.021414 -0.043126 
-0.410192 0.1992 -0.021038 -0.397838 -0.517366 -0.093731 -0.394171 -0.279665 -0.362729 
-0.454338 0.200063 0.029339 -0.346706 -0.524951 -0.298306 -0.405952 -0.290637 -0.432851 
-0.348363 -0.522264 -0.386359 -0.33148 -0.514064 -0.331685 -0.423973 -0.380482 -0.082211 
-0.387662 0.12011 -0.074383 -0.430754 -0.447266 -0.068447 -0.444658 0.181785 0.075562 
-0.490882 0.040578 -0.137965 -0.440619 0.098725 0.102673 -0.431659 -0.568585 -0.371714 
-0.404999 -0.528359 -0.284461 -0.491982 0.109122 0.049788 -0.423523 0.213 -0.118871 
-0.442131 -0.472624 -0.281859 -0.427221 -0.386086 -0.315328 -0.475758 0.256103 -0.127185 
-0.52097 0.237133 -0.217605 -0.453148 0.027706 0.01467 -0.561405 0.26532 -0.174592 
-0.576307 0.258571 -0.235084 -0.602956 0.249327 -0.128414 -0.535395 0.264309 -0.073473 
-0.592972 0.058044 -0.124116 -0.690349 0.338306 -0.254391 -0.625228 0.117003 -0.233324 
-0.625862 0.097744 -0.0273 -0.61494 0.2082 -0.015745 -0.62292 0.344551 -0.158449 
-0.77934 0.235251 -0.238451 -0.668379 0.144766 -0.147617 -0.754869 0.279045 -0.182877 

POLYGONS 501 1500
OFFSETS vtktypeint64
0 3 6 9 12 15 18 21 24 
27 30 33 36 39 42 45 48 51 
54 57 60 63 66 69 72 75 78 
81 84 87 90 93 96 99 102 105 
108 111 114 117 120 123 126 129 132 
135 138 141 144 147 150 153 156 159 
162 165 168 171 174 177 180 183 186 
189 192 195 198 201 204 207 210 213 
216 219 222 225 228 231 234 237 240 
243 246 249 252 255 258 261 264 267 
270 273 276 279 282 285 288 291 294 
297 300 303 306 309 312 315 318 321 
324 327 330 333 336 339 342 345 348 
351 354 357 360 363 366 369 372 375 
378 381 384 387 390 393 396 399 402 
405 408 411 414 417 420 423 426 429 
432 435 438 441 444 447 450 453 456 
459 462 465 468 471 474 477 480 483 
486 489 492 495 498 501 504 507 510 
513 516 519 522 525 528 531 534 537 
540 543 546 549 552 555 558 561 564 
567 570 573 576 579 582 585 588 591 
594 597 600 603 606 609 612 615 618 
621 624 627 630 633 636 639 642 645 
648 651 654 657 660 663 666 669 672 
675 678 681 684 687 690 693 696 699 
702 705 708 711 714 717 720 723 726 
729 732 735 738 741 744 747 750 753 
756 759 762 765 768 771 774 777 780 
783 786 789 792 795 798 801 804 807 
810 813 816 819 822 825 828 831 834 
837 840 843 846 849 852 855 858 861 
864 867 870 873 876 879 882 885 888 
891 894 897 900 903 906 909 912 915 
918 921 924 927 930 933 936 939 942 
945 948 951 954 957 960 963 966 969 
972 975 978 981 984 987 990 993 996 
999 1002 1005 1008 1011 1014 1017 1020 1023 
1026 1029 1032 1035 1038 1041 1044 1047 1050 
1053 1056 1059 1062 1065 1068 1071 1074 1077 
1080 1083 1086 1089 1092 1095 1098 1101 1104 
1107 1110 1113 1116 1119 1122 1125 1128 1131 
1134 1137 1140 1143 1146 1149 1152 1155 1158 
1161 1164 1167 1170 1173 1176 1179 1182 1185 
1188 1191 1194 1197 1200 1203 1206 1209 1212 
1215 1218 1221 1224 1227 1230 1233 1236 1239 
1242 1245 1248 1251 1254 1257 1260 1263 1266 
1269 1272 1275 1278 1281 1284 1287 1290 1293 
1296 1299 1302 1305 1308 1311 1314 1317 1320 
1323 1326 1329 1332 1335 1338 1341 1344 1347 
1350 1353 1356 1359 1362 1365 1368 1371 1374 
1377 1380 1383 1386 1389 1392 1395 1398 1401 
1404 1407 1410 1413 1416 1419 1422 1425 1428 
1431 1434 1437 1440 1443 1446 1449 1452 1455 
1458 1461 1464 1467 1470 1473 1476 1479 1482 
1485 1488 1491 1494 1497 1500 
CONNECTIVITY vtktypeint64
130 156 158 189 186 220 148 128 144 
109 107 125 109 125 117 153 148 144 
153 144 156 117 125 130 130 125 153 
130 153 156 97 117 113 136 158 165 
87 97 113 87 113 110 146 136 165 
16 29 37 37 29 49 220 214 217 
17 19 16 17 21 19 37 49 55 
21 17 43 41 43 52 43 55 52 
203 189 205 224 213 235 224 235 234 
21 43 41 85 94 142 81 94 74 
137 142 160 85 142 137 160 102 137 
102 85 137 138 102 160 126 102 138 
121 102 126 131 126 138 133 126 131 
112 123 131 118 126 133 118 121 126 
115 121 118 105 149 141 100 84 105 
187 141 149 100 105 141 116 141 187 
116 100 141 103 100 116 170 116 187 
103 81 100 142 116 170 131 122 133 
123 127 131 115 127 123 118 133 122 
127 118 122 118 127 115 127 122 131 
31 70 44 45 31 44 229 227 232 
209 227 229 198 227 209 24 31 45 
210 209 229 210 199 209 176 173 199 
60 74 63 42 45 60 174 173 176 
174 168 177 63 75 78 168 182 180 
177 168 180 78 65 86 65 78 75 
65 68 86 57 68 65 47 57 51 
166 139 143 88 112 96 47 51 61 
166 143 188 77 88 96 77 76 88 
61 76 77 108 101 154 69 101 108 
90 69 108 172 154 195 45 59 60 
112 139 96 149 154 172 182 193 202 
234 235 212 230 234 212 34 28 23 
23 37 40 204 205 223 204 223 222 
204 222 212 235 221 212 17 28 22 
22 28 34 34 23 54 204 206 205 
221 204 212 218 221 235 22 34 48 
34 54 48 54 40 48 206 204 221 
206 221 218 168 161 182 147 151 168 
86 99 106 78 86 106 68 72 86 
72 68 56 57 56 68 161 139 155 
151 139 161 134 139 151 99 96 134 
47 56 57 47 36 56 155 139 166 
134 96 139 23 40 54 38 47 61 
36 47 38 208 188 201 200 188 208 
200 166 188 67 77 96 101 145 154 
101 114 145 101 91 114 101 69 91 
154 145 195 70 91 69 195 196 198 
50 77 67 50 61 77 50 38 61 
39 38 50 145 114 159 83 114 91 
145 171 195 70 83 91 195 190 196 
171 190 195 232 219 247 219 242 247 
227 219 232 198 219 227 198 216 219 
196 216 198 33 73 70 31 33 70 
31 15 33 18 31 24 31 20 15 
18 20 31 18 13 20 13 8 20 
246 232 247 229 232 238 42 24 45 
18 24 42 184 199 210 184 176 199 
64 63 95 60 63 64 42 60 64 
42 64 35 147 174 152 63 78 95 
147 168 174 238 210 229 152 174 176 
87 110 104 207 193 211 132 152 135 
238 246 243 80 79 89 175 179 197 
39 50 58 58 50 67 58 67 82 
191 185 200 191 208 211 19 32 36 
36 32 46 62 58 82 71 62 82 
183 155 185 46 71 72 72 71 99 
71 82 99 211 193 224 72 56 46 
183 194 193 119 79 132 119 132 135 
179 135 181 89 79 119 89 119 140 
119 135 164 164 135 179 225 215 228 
228 215 238 228 238 243 5 10 12 
27 12 53 140 119 164 167 140 164 
167 164 175 175 164 179 7 6 9 
239 248 241 157 175 171 157 158 175 
104 93 97 97 87 104 7 4 14 
7 9 4 2 6 7 2 0 6 
250 241 251 241 248 251 242 239 241 
242 236 239 236 237 239 236 233 237 
175 158 156 93 92 97 92 80 98 
93 80 92 14 26 30 4 26 14 
156 167 175 98 89 120 120 92 98 
26 27 30 5 2 8 243 246 250 
233 225 228 2 7 20 198 172 195 
44 69 90 178 198 192 44 70 69 
199 198 209 192 198 199 45 44 59 
60 59 81 173 169 199 60 81 74 
74 75 63 177 173 174 163 173 177 
180 202 207 180 182 202 207 201 180 
143 201 188 143 162 201 139 112 143 
51 65 76 61 51 76 51 57 65 
108 154 149 90 108 105 44 90 66 
178 172 198 66 59 44 59 66 81 
169 187 192 201 162 180 184 215 197 
179 184 197 186 185 191 214 186 191 
46 41 52 158 157 165 157 146 165 
117 110 113 248 240 244 4 9 6 
16 19 29 49 29 58 186 214 220 
32 19 21 55 49 62 52 55 62 
234 217 226 224 234 226 183 189 203 
194 203 213 224 194 213 184 179 181 
80 64 79 53 35 64 12 35 53 
35 12 42 12 18 42 10 18 12 
184 210 215 181 176 184 135 152 181 
79 95 132 79 64 95 181 152 176 
132 147 152 95 106 132 132 106 147 
95 78 106 182 183 193 161 183 182 
147 134 151 106 134 147 72 99 86 
202 193 207 161 155 183 99 82 96 
56 36 46 208 207 211 155 166 185 
82 67 96 191 200 208 166 200 185 
210 238 215 99 134 106 208 201 207 
230 231 234 28 25 23 17 25 28 
222 230 212 223 231 230 222 223 230 
223 220 231 16 37 23 25 16 23 
17 16 25 125 124 148 125 107 124 
124 129 148 124 107 129 235 205 218 
205 206 218 43 48 40 43 22 48 
17 22 43 43 40 55 231 217 234 
205 220 223 40 37 55 231 220 217 
125 148 153 129 128 148 107 109 129 
213 205 235 213 203 205 205 189 220 
129 109 128 36 38 39 19 36 39 
171 150 157 150 171 159 103 116 142 
142 170 163 94 81 103 94 103 142 
169 170 187 81 66 100 192 187 178 
66 84 100 187 149 178 66 90 84 
149 172 178 84 90 105 105 108 149 
88 76 112 112 76 121 121 115 112 
115 123 112 112 131 138 112 138 143 
162 143 138 76 65 102 121 76 102 
138 160 162 65 75 102 75 85 102 
163 177 160 162 160 177 162 177 180 
85 75 74 163 160 142 74 94 85 
163 170 169 173 163 169 199 169 192 
114 150 159 111 104 150 114 111 150 
114 83 111 93 104 111 83 93 111 
83 70 93 20 7 14 241 250 247 
242 241 247 219 216 242 216 236 242 
216 233 236 171 175 190 93 70 73 
15 14 30 15 20 14 2 20 8 
247 250 246 225 233 216 216 197 225 
216 196 197 190 197 196 190 175 197 
93 73 80 30 73 33 15 30 33 
225 197 215 80 89 98 53 64 80 
73 53 80 30 53 73 30 27 53 
10 13 18 10 8 13 5 8 10 
171 145 159 246 238 232 3 11 4 
237 228 245 140 156 144 3 5 11 
3 2 5 245 243 250 228 243 245 
237 233 228 128 140 144 128 89 140 
128 120 89 128 109 120 11 27 26 
11 5 27 5 12 27 193 194 224 
194 183 203 46 52 71 21 41 46 
32 21 46 211 224 226 183 185 186 
183 186 189 71 52 62 217 211 226 
214 191 217 191 211 217 62 49 58 
29 39 58 29 19 39 248 244 251 
239 240 248 150 146 157 110 136 150 
3 0 2 156 140 167 104 110 150 
136 146 150 4 11 26 92 120 109 
92 109 97 109 117 97 237 240 239 
240 237 245 240 245 244 249 245 250 
244 245 249 0 3 1 1 3 4 
110 117 130 136 130 158 244 249 251 
249 250 251 0 1 6 6 1 4 
110 130 136 151 161 168 
POINT_DATA 252
SCALARS k float
LOOKUP_TABLE default
1.43526 1.91573 -1.00353 -0.0421904 -0.518897 0.424888 0.912312 -1.312 0.639286 
2.24831 0.29984 0.505553 0.0594524 0.427113 0.449497 -0.0721393 -0.223998 -0.12525 
-0.583914 0.397398 0.959095 0.283216 1.79431 0.650332 0.25351 1.98087 -0.0162029 
0.44349 0.435451 0.377536 -0.767878 -0.800938 0.409166 -0.441951 1.13307 0.0527083 
-0.824495 -0.523589 -0.00996292 -0.0835832 -1.29829 0.250851 0.19603 -1.78886 -0.43419 
0.343043 -1.04944 0.134565 1.12517 0.55948 0.0797285 0.277302 0.0424431 -0.468015 
1.77678 -0.0397194 0.638209 0.541135 -0.138668 -0.419412 -0.804286 0.11595 -0.164314 
-0.109918 -0.839912 -0.376852 0.179824 -0.0572429 0.454905 0.106511 -0.555205 -0.463528 
0.345083 -0.805175 -0.400044 -0.557212 0.344804 0.0738842 -0.422439 0.578364 -0.925804 
0.345332 0.0356934 0.182461 0.119061 0.303676 -1.59365 1.74742 0.116894 -1.3765 
0.299196 -0.0276982 -1.3479 -0.231089 -0.403053 -0.198093 -0.65419 -0.446475 1.42164 
-1.274 0.274423 0.152684 -0.62257 0.18965 -0.811408 0.345318 -0.153026 0.830667 
0.247653 -0.258554 -1.40082 -0.440974 -1.68061 2.77802 0.497956 0.56051 0.128147 
-0.932284 -0.544559 -0.0266746 -0.065493 -1.69965 3.47534 0.895081 2.55332 -0.865667 
-1.06224 1.78107 0.458599 0.639505 -0.0901186 0.524198 -0.502682 -0.110781 0.744956 
0.613146 -1.25336 0.0743265 -1.92688 -0.97354 -0.924571 0.13377 -0.314224 0.0263172 
-0.227412 -0.0816898 1.24575 -0.13474 1.05005 0.353071 -1.55034 -0.642254 -0.38421 
-0.497345 0.363153 0.0936043 -0.0468186 -0.475856 -0.592844 0.483263 -0.0976021 -0.969588 
0.23855 -0.446056 -0.261709 3.1304 0.0891783 0.572891 -1.38092 0.29067 0.262905 
-0.0271994 0.13046 -0.291639 -0.37274 -0.882716 -0.0680605 -0.948964 0.236867 0.0868962 
0.665331 0.266178 0.366206 -0.587511 -1.03596 -0.47866 0.581292 0.287501 0.196067 
0.209346 0.0967467 -0.405794 0.142354 -0.688654 0.0289831 0.0435505 -0.684163 -1.13009 
-0.989786 -0.959462 0.227471 0.297473 0.282515 -0.03661 2.16534 -2.08871 1.02338 
0.0818721 0.271607 0.225332 0.184284 -0.740604 0.674156 0.0432923 0.311015 -0.0702584 
-0.896692 0.351091 0.988919 -0.652548 -0.441631 1.81502 0.459454 0.00438464 0.404304 
-0.691132 0.439565 0.21192 0.405472 0.227567 2.07678 -0.520184 -0.379079 0.3643 
-0.121578 -0.913056 0.27213 0.388073 0.0572705 -0.766654 -0.0649897 -1.20813 0.303004 
0.266084 1.64183 0.568665 0.71233 0.863576 1.65094 1.99066 -0.668783 0.940431 

FIELD FieldData 7
h 1 252 float
1.03599 1.04354 0.732014 1.46171 0.193485 1.04476 0.550789 1.06623 1.99805 
-2.10452 1.12334 0.21743 1.3798 0.621676 -0.548583 0.757306 4.33706 3.41258 
1.54106 6.89878 1.3263 1.79922 3.56096 2.30175 1.63369 4.89473 -0.211125 
0.107502 5.34853 0.592413 1.44748 0.805295 0.702916 -0.247322 16.0962 0.198043 
1.032 1.37344 4.48305 4.19286 0.116295 4.46804 2.09347 1.01481 1.47107 
0.349838 -0.115999 2.05924 9.61136 1.47186 0.223536 2.5869 0.114766 -0.0927876 
1.26374 0.28145 2.28513 -1.08349 0.505647 1.00414 1.92659 2.33407 0.812491 
1.39619 -0.201754 0.427595 1.43937 0.507452 2.61523 2.19711 0.665989 0.0327343 
-0.96801 0.25753 0.854836 0.79856 2.57262 0.348587 0.872408 0.317789 -0.322771 
1.19045 0.455459 2.14868 2.68318 1.74112 -0.660752 2.21072 1.07262 -0.41065 
2.94697 1.78803 0.920821 2.06047 1.4662 0.273528 -0.262939 2.44104 -1.59901 
-1.46468 2.27644 2.76197 1.96828 1.90933 1.19353 3.50363 -0.682769 -0.16449 
3.4304 2.48138 2.93877 2.53933 0.572436 5.05811 2.54815 1.77129 2.34565 
4.84608 0.309148 -0.0491318 -0.628265 1.28992 -0.462882 -0.840357 2.61001 1.81358 
1.65887 3.83406 0.616953 -0.706825 4.9778 1.27849 -0.0251894 1.08052 0.07033 
0.688544 4.85569 2.46304 2.30507 -0.748703 -0.0153232 2.938 2.35 1.87213 
-0.272638 2.81786 1.50944 -0.385543 0.641721 3.14522 2.58923 0.635922 0.344242 
2.39988 3.16596 1.00685 1.37341 1.53312 2.94146 2.86916 2.10759 -2.3861 
2.45389 1.15935 0.322279 0.808087 -0.759098 -0.536552 0.164023 0.871442 1.84674 
2.34398 2.48911 0.0944136 1.22916 2.0866 1.94577 0.640639 2.47388 0.372137 
-0.451202 1.01936 0.860275 -4.58693 -0.0262677 1.31692 2.20142 2.21217 2.14331 
0.872097 2.39653 2.20169 1.12718 2.29145 0.486374 1.82806 0.451287 0.0236313 
1.22677 1.42412 -0.455404 2.98157 1.34955 0.193797 4.02525 1.25333 5.42366 
1.25428 3.47076 0.733939 2.99625 1.08944 4.4505 1.65195 3.01509 -0.15019 
-0.523516 5.89358 0.917332 0.961216 1.68734 6.61753 3.402 1.64091 1.04742 
0.0589512 2.79009 1.00825 -0.594868 1.09227 8.94776 7.81019 0.361486 -1.23755 
1.79178 1.82238 -0.109846 0.723951 3.08228 -0.688083 5.52507 0.646966 1.06282 
3.28281 1.64308 0.624709 1.15654 0.711036 6.2998 2.35007 1.41566 0.593834 

kmin 1 252 float
2.15266 2.78062 1.90775 3.60698 2.06259 3.20374 2.25341 3.89424 4.94568 
-1.62512 2.59474 2.11459 2.82391 2.10663 0.892733 2.3553 8.05739 6.57393 
4.08129 12.6882 3.53416 3.05015 7.21683 4.75235 3.78548 9.6532 0.521737 
0.403578 10.5921 1.44021 2.9169 2.29762 1.10836 0.239781 31.0402 0.997285 
1.88345 2.82599 8.18708 7.40042 0.656051 9.63148 4.38681 3.06609 3.73242 
1.00198 0.745048 3.4164 24.7035 3.29464 1.6574 3.79074 1.09112 0.466639 
3.62146 1.20194 4.0539 1.16256 1.80303 1.97298 4.65518 3.21742 2.08981 
3.01609 0.239575 1.84608 2.89641 1.04803 5.25182 4.13188 2.0485 1.69684 
0.531059 2.42619 1.32371 1.97114 3.60651 1.74959 2.74099 0.646024 0.523252 
1.96955 1.85275 2.73193 4.0134 1.93722 1.12995 3.1653 1.98122 0.044338 
4.9253 3.71998 1.35569 4.11934 1.71704 0.856329 0.444306 4.31303 -1.35296 
-0.449419 2.3905 4.06469 2.56115 2.61924 1.64724 4.67213 0.0638605 1.19025 
4.66918 4.64135 3.62403 3.77713 1.16316 5.88247 3.5601 2.79053 3.45038 
6.65164 0.844241 0.424683 0.970729 2.74049 0.199724 -0.575549 6.59841 3.43059 
3.90996 5.25246 1.44213 0.450388 6.63437 2.69084 0.449286 1.44657 2.01074 
1.51014 7.02557 3.79238 3.25517 0.268635 1.16378 3.33285 3.62507 2.59475 
3.10393 4.95569 4.54633 -0.350558 2.03575 4.53976 3.08699 1.52473 1.1353 
4.24793 5.25906 2.71053 2.73594 1.58794 4.9031 3.34826 2.89092 -0.697853 
3.20733 1.8016 0.715193 2.80343 0.305811 0.153713 3.29121 1.64063 2.66444 
2.94482 4.48522 1.50239 2.5121 3.63969 4.57389 0.946084 4.27178 1.12218 
1.85389 2.31557 1.02227 -0.233826 0.805936 2.69774 4.28854 2.35298 2.88818 
2.05767 3.63044 4.71239 2.13767 4.90631 2.00537 3.3345 1.7849 1.6233 
2.94799 3.76153 0.230664 4.43957 2.81034 1.2354 7.52517 3.52287 13.8768 
2.23798 6.07842 1.45888 6.39396 2.22339 8.64646 3.98801 5.57604 0.287961 
0.10286 10.5108 4.73943 1.96397 3.52766 12.3404 5.93972 3.60551 1.76223 
0.909793 4.68426 2.50554 1.1483 2.67632 17.4781 14.6201 2.22336 0.94772 
3.69016 3.68655 1.9935 1.63986 6.63743 2.5309 10.9505 3.43545 3.52626 
7.67763 3.84645 2.03621 3.24497 2.49592 15.4601 5.3831 4.12873 2.11131 

kmax 1 252 float
-0.0806855 -0.693547 -0.44372 -0.683562 -1.67561 -1.11421 -1.15183 -1.76178 -0.949585 
-2.58392 -0.348056 -1.67973 -0.0643016 -0.863281 -1.9899 -0.840688 0.616736 0.251238 
-0.999164 1.10938 -0.881562 0.54829 -0.0949193 -0.14886 -0.518102 0.136258 -0.943987 
-0.188575 0.104976 -0.255386 -0.0219381 -0.687033 0.297469 -0.734425 1.15209 -0.601199 
0.180555 -0.079116 0.779016 0.985302 -0.423462 -0.695391 -0.19987 -1.03648 -0.79028 
-0.302301 -0.977046 0.702071 -5.48079 -0.350916 -1.21033 1.38306 -0.861585 -0.652214 
-1.09398 -0.639036 0.516368 -3.32953 -0.791738 0.0353005 -0.802003 1.45071 -0.464832 
-0.223704 -0.643082 -0.99089 -0.0176825 -0.0331226 -0.0213589 0.262339 -0.716521 -1.63137 
-2.46708 -1.91113 0.38596 -0.374022 1.53874 -1.05242 -0.996173 -0.0104473 -1.16879 
0.411351 -0.941835 1.56542 1.35297 1.54501 -2.45145 1.25615 0.164023 -0.865637 
0.968647 -0.143921 0.485947 0.00160131 1.21536 -0.309272 -0.970184 0.569056 -1.84506 
-2.47995 2.16238 1.45925 1.37541 1.19943 0.739821 2.33513 -1.4294 -1.51923 
2.19161 0.321417 2.25352 1.30153 -0.0182915 4.23375 1.53619 0.752041 1.24092 
3.04052 -0.225945 -0.522947 -2.22726 -0.160641 -1.12549 -1.10517 -1.3784 0.196575 
-0.59221 2.41566 -0.208227 -1.86404 3.32123 -0.133849 -0.499665 0.714471 -1.87008 
-0.133053 2.68581 1.13369 1.35497 -1.76604 -1.19442 2.54314 1.07493 1.14951 
-3.6492 0.680027 -1.52744 -0.420529 -0.752305 1.75068 2.09148 -0.252884 -0.446821 
0.551826 1.07287 -0.696837 0.0108757 1.47831 0.97982 2.39007 1.32426 -4.07435 
1.70046 0.517094 -0.0706345 -1.18726 -1.82401 -1.22682 -2.96317 0.10225 1.02905 
1.74314 0.492994 -1.31356 -0.0537901 0.533512 -0.682349 0.335194 0.675973 -0.377908 
-2.75629 -0.276844 0.69828 -8.94004 -0.858471 -0.0638978 0.114313 2.07135 1.39843 
-0.313475 1.16262 -0.309014 0.116679 -0.323412 -1.03262 0.321613 -0.882323 -1.57604 
-0.494453 -0.913292 -1.14147 1.52357 -0.111242 -0.847807 0.525339 -1.01621 -3.02945 
0.270577 0.8631 0.00899582 -0.40146 -0.0445062 0.254538 -0.684108 0.454151 -0.588342 
-1.14989 1.27634 -2.90476 -0.0415377 -0.152972 0.894639 0.864274 -0.323694 0.332612 
-0.791891 0.895934 -0.489038 -2.33803 -0.491783 0.417377 1.00027 -1.50038 -3.42282 
-0.106592 -0.0417873 -2.21319 -0.191959 -0.472875 -3.90707 0.0996808 -2.14152 -1.40062 
-1.11201 -0.560292 -0.78679 -0.931895 -1.07385 -2.86049 -0.682955 -1.29742 -0.923638 

hks 16 252 double
0.60350124918 0.6100247577 0.61649905795 0.62290611381 0.62922799444 0.63544701561 0.64154587357 0.6475077683 0.65331651323 
0.65895662906 0.66441341958 0.66967302819 0.67472247436 0.67954967002 0.68414341654 0.68849338382 0.63956678652 0.64546805231 
0.65129492414 0.65703053546 0.66265881671 0.66816454619 0.67353338324 0.67875188458 0.68380750475 0.68868858174 0.69338430883 
0.69788469404 0.70218050853 0.70626322551 0.71012495145 0.71375835162 0.446896849 0.45532514715 0.46374330827 0.47212921809 
0.48046072598 0.48871576034 0.49687244711 0.50490923093 0.51280499761 0.52053919623 0.52809195843 0.5354442122 0.54257778723 
0.54947550903 0.5561212788 0.56250013714 0.50886280413 0.51715527076 0.52540519972 0.53359005649 0.54168731986 0.54967467216 
0.55753018601 0.56523250354 0.57276100373 0.58009595405 0.58721864257 0.59411148774 0.60075812348 0.60714345825 0.61325370752 
0.61907640032 0.51384458862 0.52197461986 0.53000871225 0.53792951242 0.54572012036 0.55336414972 0.56084578338 0.56814982435 
0.57526174124 0.58216770793 0.58885463641 0.5953102021 0.60152286067 0.60748185575 0.61317721715 0.61859974952 0.35839358035 
0.36423407794 0.37019453526 0.37626108263 0.38241825005 0.38864908376 0.3949352941 0.40125743179 0.40759508802 0.41392711355 
0.42023185069 0.42648737185 0.43267171832 0.43876313279 0.44474027965 0.45058244792 0.60780958457 0.61458083483 0.62121857294 
0.6277134174 0.63405612748 0.64023760205 0.64624888561 0.65208118072 0.65772586542 0.66317451388 0.66841891808 0.67345110862 
0.67826337238 0.68284826546 0.68719862012 0.69130754478 0.47087807923 0.47855250981 0.48624614911 0.49393527435 0.50159595895 
0.50920427972 0.51673652136 0.52416937437 0.53148012228 0.53864681441 0.54564842051 0.55246496433 0.55907763364 0.56546886488 
0.57162240175 0.57752332757 0.37561754707 0.37905778187 0.38270388179 0.38655015503 0.39058826673 0.39480728748 0.39919379295 
0.40373201239 0.40840402214 0.41318997916 0.41806838795 0.4230163936 0.42801009289 0.43302485485 0.43803564226 0.443017326 
0.58912062498 0.59536561199 0.60160060694 0.6078029599 0.61395057451 0.62002207264 0.62599693426 0.63185561133 0.63757961473 
0.64315157437 0.64855527318 0.6537756562 0.65879881697 0.66361196336 0.6682033659 0.67256229164 0.36016568455 0.3602154196 
0.36047600457 0.36095578363 0.36166066474 0.36259393581 0.36375613379 0.36514497108 0.36675532145 0.36857926611 0.37060619805 
0.37282298101 0.37521415769 0.37776219991 0.38044779266 0.38325014282 0.42130175332 0.42698843166 0.43289339709 0.43899196567 
0.44525735475 0.45166099327 0.45817286393 0.46476186955 0.47139621453 0.47804379202 0.484672567 0.49125094555 0.49774812126 
0.50413439054 0.51038142979 0.51646252919 0.26395406444 0.26476216226 0.26563866456 0.26658707799 0.26761028153 0.26871045252 
0.26988900179 0.27114651938 0.27248273231 0.27389647526 0.27538567518 0.27694735006 0.278577622 0.28027174425 0.28202414148 
0.2838284623 0.34564580125 0.34669818857 0.34794597762 0.34939455101 0.35104675217 0.35290278295 0.35496015514 0.35721369687 
0.35965561342 0.36227560006 0.36506100301 0.36799702313 0.37106695567 0.37425245855 0.37753384102 0.38089036415 0.33433032986 
0.33981658339 0.34545737692 0.35123632999 0.35713533765 0.36313475173 0.36921359284 0.37534978842 0.38152043072 0.38770204825 
0.39387088334 0.40000316865 0.4060753952 0.41206456523 0.41794842368 0.42370566323 0.25021104639 0.25136258297 0.25272562753 
0.25429677582 0.25607047421 0.25803910483 0.26019310875 0.26252114389 0.26501027322 0.26764617794 0.27041338958 0.27329553438 
0.27627558314 0.27933609966 0.28245948112 0.28562818451 0.36882586855 0.37460383653 0.38056355197 0.38669158204 0.3929733451 
0.39939329121 0.40593510142 0.41258190178 0.41931648756 0.42612155278 0.43297991973 0.43987476315 0.44678982389 0.45370960709 
0.4606195603 0.46750622785 0.3910018556 0.3976934506 0.40450208022 0.41141163284 0.41840543203 0.42546645338 0.43257754834 
0.43972167005 0.44688209584 0.45404264107 0.46118785944 0.46830322521 0.47537529338 0.48239183476 0.48934194357 0.49621611619 
0.26557131792 0.26636007281 0.26718692243 0.26805917117 0.26898361068 0.26996637142 0.2710127856 0.27212726497 0.27331319643 
0.274572858 0.27590735688 0.27731659097 0.27879923417 0.28035274538 0.28197340022 0.28365634394 0.29840458038 0.30072427096 
0.30323797405 0.30595147331 0.30886933799 0.31199480189 0.31532966557 0.31887422543 0.32262723262 0.32658588374 0.33074584425 
0.33510130413 0.3396450645 0.34436865237 0.34926246017 0.35431590541 0.30208114719 0.30678592563 0.31162542243 0.3165885982 
0.32166286167 0.32683417788 0.33208720521 0.33740545789 0.34277148992 0.34816709528 0.35357351908 0.35897167371 0.36434235404 
0.36966644611 0.37492512392 0.38010002984 0.34235962543 0.34340607718 0.34466127958 0.34613509609 0.34783638916 0.34977281847 
0.35195065369 0.35437460826 0.35704770006 0.35997114424 0.36314428238 0.36656455077 0.37022748951 0.37412679237 0.37825439622 
0.38260060713 0.51569903965 0.52244135786 0.52912532787 0.53573531778 0.5422567909 0.54867644822 0.55498235192 0.5611640284 
0.56721254979 0.57312059327 0.57888247786 0.58449417867 0.58995331912 0.59525914182 0.60041245939 0.60541558638 0.50829803126 
0.51561782746 0.52284075569 0.52995201263 0.53693810634 0.54378697109 0.5504880626 0.5570324329 0.56341278435 0.56962350239 
0.57566066709 0.58152204392 0.5872070542 0.59271672624 0.59805362845 0.60322178582 0.22139093373 0.22046983987 0.21956704125 
0.21868662834 0.2178327497 0.21700958434 0.21622130842 0.21547205623 0.21476587579 0.21410667978 0.21349819266 0.21294389526 
0.2124469684 0.21201023704 0.21163611684 0.21132656463 0.46960952965 0.47645017409 0.48332587347 0.49021883299 0.49711131588 
0.50398588147 0.51082562115 0.51761438689 0.52433700684 0.53097948297 0.53752916604 0.543974904 0.55030716062 0.55651810207 