# vtk DataFile Version 5.1
vtk output
ASCII
DATASET POLYDATA
POINTS 252 float
0.817975 -0.183964 -0.276786 0.821807 -0.232957 -0.191318 0.821344 -0.152554 -0.164246 
0.799777 -0.078377 -0.09877 0.747227 -0.006149 -0.252834 0.743856 -0.165899 -0.272751 
0.755342 0.007778 -0.146087 0.755174 -0.247614 -0.172698 0.73346 -0.082799 -0.094558 
0.747465 -0.181109 -0.141999 0.75773 -0.256385 -0.244675 0.59809 -0.234176 -0.246315 
0.701145 -0.009163 -0.142654 0.682732 -0.074198 -0.213899 0.643751 -0.308482 -0.181416 
0.615093 -0.242008 -0.015987 0.644347 -0.297263 -0.067233 0.647566 -0.129111 -0.193253 
0.638782 -0.138355 -0.132701 0.519768 -0.265815 -0.013053 0.564221 -0.170651 -0.039267 
0.566287 -0.332416 -0.096762 0.523916 -0.191198 -0.210238 0.497382 -0.129351 -0.104956 
0.526455 -0.282094 -0.211281 0.484815 -0.220717 0.016854 0.489409 -0.305672 -0.115817 
0.460906 -0.127407 -0.022154 0.437812 -0.24961 -0.121883 0.415472 -0.141824 0.088431 
0.40356 -0.313047 -0.085168 0.45019 -0.335203 -0.025048 0.397556 0.377939 0.076143 
0.412202 0.333792 0.157316 0.34875 -0.088733 -0.025824 0.425534 -0.174735 -0.101823 
0.294937 -0.300995 0.128213 0.389406 0.424819 0.145091 0.384484 -0.207026 0.149433 
0.365074 0.231031 0.099405 0.335655 0.350294 0.245874 0.415367 -0.263397 0.068722 
0.35197 0.27484 -0.022082 0.356433 0.296473 0.039701 0.333005 0.178082 -0.070912 
0.322942 0.435964 0.232859 0.30366 0.192642 0.037948 0.322161 -0.087345 0.139059 
0.278478 0.530827 0.232728 0.293624 0.245256 -0.129702 0.317472 0.239324 0.188626 
0.256714 0.386522 0.267641 0.30455 -0.228631 -0.089343 0.304763 0.332799 0.012466 
0.286881 -0.147384 -0.069855 0.314977 0.464667 0.108675 0.235496 -0.079583 0.057033 
0.290918 0.450307 0.333324 0.210532 0.293902 -0.09458 0.240074 -0.506893 0.190996 
0.232467 0.524604 0.308566 0.259964 -0.316259 0.006207 0.274007 -0.172405 0.234774 
0.257245 0.242281 0.176148 0.299759 0.482459 0.156504 0.292019 -0.12447 0.224961 
0.199937 0.411089 0.144766 0.228115 0.468452 0.137004 0.215389 0.294255 0.069913 
0.192667 0.569069 0.184123 0.182596 -0.25149 0.014922 0.217562 -0.419874 0.097974 
0.207435 0.120653 -0.154943 0.193102 0.162674 0.020913 0.224532 0.105416 -0.046586 
0.227 0.373104 0.055433 0.212314 0.459141 0.342742 0.222729 -0.043734 0.107929 
0.154381 -0.159562 0.293906 0.141098 -0.23962 0.202318 0.199041 -0.016833 -0.123885 
0.162481 -0.280907 0.115485 0.189515 0.033775 0.069027 0.138058 -0.084081 -0.090074 
0.217672 0.222839 0.07075 0.18919 0.49853 0.194668 0.210031 -0.191969 0.010104 
0.151847 -0.3584 0.131341 0.177702 -0.275061 0.075905 0.152526 -0.010113 0.177318 
0.16135 -0.468404 0.093813 0.159323 0.101399 -0.251022 0.170605 0.271687 -0.021982 
0.157924 0.244173 -0.175319 0.115647 0.340758 -0.063037 0.13422 -0.436543 0.136196 
0.108278 0.322605 -0.128276 0.157964 0.171335 0.13169 0.110913 -0.280096 0.026382 
0.10583 -0.018582 -0.283717 0.123668 -0.112325 0.295677 0.07603 -0.333233 0.155948 
0.06937 -0.291045 0.037359 0.120257 -0.246695 0.255669 0.020083 -0.031275 -0.304566 
0.086257 -0.329585 0.11631 0.094379 -0.12172 -0.140626 0.053688 0.306587 -0.235122 
0.095647 0.055186 0.186178 0.08332 -0.189308 -0.073441 0.035084 0.370114 0.016993 
0.057405 -0.198761 0.306509 0.073375 0.17785 -0.299441 0.109525 0.268347 0.032845 
0.081075 0.204582 0.158198 0.043447 -0.019963 0.251746 -0.016425 0.129301 0.179161 
-0.004727 0.230297 0.103071 0.022306 -0.356207 0.138874 -0.023034 -0.394316 0.211084 
-0.018507 0.393138 0.267067 -0.010127 -0.280287 0.058733 -0.053277 0.128407 -0.361251 
-0.006736 0.376135 0.158416 -0.028934 0.395613 -0.108312 -0.071047 -0.188954 -0.066088 
-0.028391 0.435541 0.030618 -0.031745 0.267448 0.132404 -0.033014 -0.127635 -0.236678 
-0.029683 0.286423 0.241375 -0.030653 -0.043532 0.225218 -0.061776 0.446664 0.149818 
-0.040189 0.318703 -0.285432 0.017686 0.330395 -0.185228 -0.071616 -0.436823 0.103789 
-0.034723 -0.370391 0.06442 -0.079454 0.32326 0.30652 -0.094461 0.270263 0.231131 
-0.076601 -0.241466 0.074465 -0.073657 -0.347141 0.292191 -0.078095 -0.277897 0.139253 
-0.113784 0.004792 0.219187 -0.085471 0.400343 0.326689 -0.093092 0.176359 0.133563 
-0.10803 0.403279 0.226413 -0.098851 0.556776 -0.042415 -0.147024 0.409872 -0.152212 
-0.082432 -0.235941 0.299054 -0.148607 0.34056 0.296319 -0.112067 -0.164292 0.142055 
-0.107556 0.429345 -0.066465 -0.079605 0.479685 0.074015 -0.101619 -0.346546 0.021105 
-0.111242 0.020189 -0.341085 -0.127003 -0.152934 -0.163456 -0.18935 -0.491455 0.021861 
-0.106704 0.473332 -0.041478 -0.123816 -0.213973 0.235187 -0.161983 0.274237 -0.301091 
-0.099908 0.223808 0.123016 -0.139951 0.463672 0.000561 -0.126235 0.101163 0.215117 
-0.159815 0.578562 -0.023462 -0.201648 0.426831 0.09078 -0.184962 0.303399 0.17326 
-0.148911 -0.160064 0.040614 -0.203814 -0.308639 0.230187 -0.214564 0.189766 0.068317 
-0.173394 -0.042474 0.149581 -0.118269 -0.287483 0.028614 -0.212521 -0.250878 0.098637 
-0.295243 -0.519525 0.013698 -0.215812 -0.500474 0.109977 -0.178215 0.270798 0.100679 
-0.250911 -0.465515 -0.016134 -0.182441 0.391677 0.182953 -0.169642 -0.173164 0.009842 
-0.194513 0.082966 -0.325546 -0.222559 -0.394675 0.216143 -0.190965 0.402995 -0.057422 
-0.235365 -0.062528 0.06889 -0.217389 0.022746 0.150785 -0.233601 0.449938 0.020078 
-0.242694 0.273876 0.07146 -0.240738 0.257067 -0.258411 -0.250303 0.139155 0.114076 
-0.232694 -0.319513 0.028171 -0.236384 0.355148 -0.001181 -0.277965 -0.310232 0.158678 
-0.251906 -0.063549 -0.037454 -0.311665 0.470008 0.039149 -0.235791 0.37731 0.090532 
-0.215954 -0.126517 -0.110413 -0.229289 -0.055817 -0.22783 -0.284662 0.225297 -0.100299 
-0.340649 -0.059923 0.103703 -0.274383 0.20741 -0.013164 -0.298296 0.181287 -0.20249 
-0.300797 -0.344148 0.097871 -0.338945 0.003152 0.137589 -0.263605 0.336782 -0.070362 
-0.242314 -0.389975 0.012556 -0.289975 -0.460903 0.12932 -0.309453 0.075096 -0.135796 
-0.352513 -0.01117 -0.079974 -0.31127 0.025657 -0.094055 -0.312147 0.144189 0.040032 
-0.329286 0.096565 -0.008406 -0.337171 -0.067832 -0.002808 -0.377224 0.087843 -0.128623 
-0.39407 0.240775 -0.150599 -0.406485 0.071037 -0.014871 -0.374029 -0.371469 0.107786 
-0.367486 0.065325 0.093575 -0.469547 -0.084258 -0.10875 -0.40031 0.000933 -0.210946 
-0.458487 0.013356 0.019601 -0.410224 -0.322233 -0.013524 -0.440988 -0.511698 -0.010529 
-0.377602 -0.491359 -0.053973 -0.502858 0.060449 -0.050023 -0.433593 -0.004575 0.107907 
-0.413954 -0.051939 0.075733 -0.423792 0.125756 -0.204289 -0.447662 0.154856 -0.128289 
-0.484226 -0.324905 -0.002864 -0.476619 -0.202608 -0.053846 -0.349207 -0.410262 -0.078828 
-0.514183 -0.348199 0.028473 -0.495464 -0.035261 0.007863 -0.447616 0.26311 -0.204947 
-0.428379 -0.514881 0.080647 -0.509804 -0.435829 -0.078039 -0.428468 -0.459747 0.114238 
-0.521731 -0.342385 -0.08845 -0.491221 -0.019431 -0.222644 -0.535929 -0.192399 -0.063659 
-0.498543 0.048517 0.00682 -0.56051 -0.026661 -0.092054 -0.545658 0.282227 -0.206986 
-0.522807 0.118605 -0.243684 -0.586164 -0.284565 -0.100783 -0.558257 -0.384684 0.037512 
-0.563751 0.147112 -0.16088 -0.5529 0.213647 -0.25396 -0.575257 0.059806 -0.057915 
-0.584579 0.105734 -0.194222 -0.562104 -0.452803 -0.020465 -0.541969 -0.221342 0.047079 
-0.646745 -0.453644 -0.004099 -0.635955 -0.443141 -0.05678 -0.653455 -0.400142 0.002397 

POLYGONS 501 1500
OFFSETS vtktypeint64
0 3 6 9 12 15 18 21 24 
27 30 33 36 39 42 45 48 51 
54 57 60 63 66 69 72 75 78 
81 84 87 90 93 96 99 102 105 
108 111 114 117 120 123 126 129 132 
135 138 141 144 147 150 153 156 159 
162 165 168 171 174 177 180 183 186 
189 192 195 198 201 204 207 210 213 
216 219 222 225 228 231 234 237 240 
243 246 249 252 255 258 261 264 267 
270 273 276 279 282 285 288 291 294 
297 300 303 306 309 312 315 318 321 
324 327 330 333 336 339 342 345 348 
351 354 357 360 363 366 369 372 375 
378 381 384 387 390 393 396 399 402 
405 408 411 414 417 420 423 426 429 
432 435 438 441 444 447 450 453 456 
459 462 465 468 471 474 477 480 483 
486 489 492 495 498 501 504 507 510 
513 516 519 522 525 528 531 534 537 
540 543 546 549 552 555 558 561 564 
567 570 573 576 579 582 585 588 591 
594 597 600 603 606 609 612 615 618 
621 624 627 630 633 636 639 642 645 
648 651 654 657 660 663 666 669 672 
675 678 681 684 687 690 693 696 699 
702 705 708 711 714 717 720 723 726 
729 732 735 738 741 744 747 750 753 
756 759 762 765 768 771 774 777 780 
783 786 789 792 795 798 801 804 807 
810 813 816 819 822 825 828 831 834 
837 840 843 846 849 852 855 858 861 
864 867 870 873 876 879 882 885 888 
891 894 897 900 903 906 909 912 915 
918 921 924 927 930 933 936 939 942 
945 948 951 954 957 960 963 966 969 
972 975 978 981 984 987 990 993 996 
999 1002 1005 1008 1011 1014 1017 1020 1023 
1026 1029 1032 1035 1038 1041 1044 1047 1050 
1053 1056 1059 1062 1065 1068 1071 1074 1077 
1080 1083 1086 1089 1092 1095 1098 1101 1104 
1107 1110 1113 1116 1119 1122 1125 1128 1131 
1134 1137 1140 1143 1146 1149 1152 1155 1158 
1161 1164 1167 1170 1173 1176 1179 1182 1185 
1188 1191 1194 1197 1200 1203 1206 1209 1212 
1215 1218 1221 1224 1227 1230 1233 1236 1239 
1242 1245 1248 1251 1254 1257 1260 1263 1266 
1269 1272 1275 1278 1281 1284 1287 1290 1293 
1296 1299 1302 1305 1308 1311 1314 1317 1320 
1323 1326 1329 1332 1335 1338 1341 1344 1347 
1350 1353 1356 1359 1362 1365 1368 1371 1374 
1377 1380 1383 1386 1389 1392 1395 1398 1401 
1404 1407 1410 1413 1416 1419 1422 1425 1428 
1431 1434 1437 1440 1443 1446 1449 1452 1455 
1458 1461 1464 1467 1470 1473 1476 1479 1482 
1485 1488 1491 1494 1497 1500 
CONNECTIVITY vtktypeint64
178 202 172 169 152 186 35 52 54 
240 235 246 134 119 172 118 134 135 
105 101 118 90 95 105 90 105 102 
95 87 105 98 90 102 71 98 88 
87 71 81 81 71 88 61 36 88 
19 25 41 19 20 25 15 20 19 
202 188 198 169 140 135 118 135 140 
105 118 121 102 105 121 70 88 98 
61 88 70 20 27 25 20 23 27 
20 18 23 233 202 212 202 198 212 
169 135 152 125 121 138 102 121 125 
109 102 125 98 102 109 86 98 109 
86 70 98 83 86 109 86 54 70 
34 35 54 27 35 34 27 23 35 
8 6 12 3 6 8 233 212 228 
217 228 212 212 198 217 188 186 198 
186 201 198 170 186 188 170 169 186 
125 138 165 242 228 248 228 225 248 
154 176 192 176 125 165 176 189 192 
226 236 248 248 225 226 192 189 205 
72 80 91 204 208 214 215 204 214 
193 205 203 192 205 193 93 91 112 
93 72 91 209 204 215 197 193 203 
93 112 107 235 238 246 224 209 223 
223 209 215 177 197 184 112 122 132 
230 223 240 158 177 184 132 122 158 
107 112 132 244 240 246 244 230 240 
172 139 178 118 119 134 101 119 118 
101 103 119 87 81 105 81 79 101 
36 81 88 36 41 38 25 38 41 
25 29 38 25 27 29 202 178 188 
121 140 138 121 118 140 29 27 47 
140 169 170 56 86 83 54 86 56 
34 54 56 27 34 47 138 149 165 
82 56 83 83 80 82 189 180 208 
176 180 189 72 74 80 208 222 214 
204 189 208 189 204 205 49 44 72 
214 229 238 214 222 229 205 204 207 
93 49 72 238 229 245 207 204 211 
204 209 211 207 197 203 31 41 36 
59 71 87 59 87 95 71 59 90 
59 95 90 158 122 177 223 215 240 
240 215 235 122 112 99 177 193 197 
215 214 235 235 214 238 112 91 99 
236 234 241 91 80 99 154 192 193 
236 226 234 248 236 241 80 106 99 
128 106 125 128 125 154 248 241 251 
80 83 106 83 109 106 125 176 154 
217 227 225 227 234 225 225 234 226 
217 225 228 242 249 247 242 248 251 
249 242 251 4 12 6 12 4 13 
106 109 125 198 201 217 233 228 242 
247 233 242 231 233 247 17 22 18 
18 22 23 35 28 52 54 52 70 
152 201 186 201 152 174 2 6 3 
9 3 8 8 12 13 9 8 13 
18 13 17 9 13 18 28 30 52 
52 30 61 52 61 70 152 135 174 
174 135 155 172 202 231 202 233 231 
9 2 3 9 18 15 7 9 15 
15 18 20 19 41 31 71 90 98 
155 135 134 155 134 172 7 15 16 
21 16 15 21 15 19 30 31 61 
31 36 61 122 153 177 122 99 104 
122 104 153 177 153 193 153 104 128 
153 128 193 128 154 193 99 106 128 
104 99 128 241 250 251 234 227 232 
234 232 250 250 232 247 241 234 250 
250 247 249 250 249 251 4 5 13 
201 227 217 219 218 247 6 0 4 
0 5 4 13 5 17 23 22 35 
201 174 227 174 155 219 227 174 219 
219 171 218 247 218 231 6 2 0 
17 5 22 22 24 28 22 28 35 
24 26 28 26 30 28 155 171 219 
171 172 231 171 231 218 0 2 1 
1 2 9 7 1 9 26 21 31 
26 31 30 155 172 171 14 7 16 
14 16 21 21 19 31 227 219 232 
232 219 247 5 11 22 22 11 24 
0 10 5 1 7 10 5 10 11 
10 14 11 10 7 14 11 14 24 
24 14 21 24 21 26 10 0 1 
181 168 141 141 161 181 82 97 108 
115 108 116 115 116 130 130 116 161 
141 130 161 100 89 108 115 100 108 
100 115 111 115 130 111 147 111 130 
65 89 100 62 65 78 78 65 100 
103 78 111 78 100 111 150 146 179 
179 146 200 150 124 146 196 200 194 
94 58 96 94 96 124 183 196 206 
211 206 207 53 42 58 68 58 92 
92 58 94 92 94 113 213 185 206 
213 206 211 221 213 216 73 84 92 
73 92 97 92 113 97 185 213 199 
195 199 221 199 213 221 42 39 44 
44 39 46 73 46 84 82 73 97 
180 168 181 181 199 180 180 199 195 
89 82 108 149 141 168 149 130 141 
47 77 89 147 130 149 157 147 149 
65 47 89 139 147 166 147 157 166 
62 79 36 103 62 78 62 103 79 
103 111 139 139 111 147 146 184 200 
210 230 224 133 132 146 124 133 146 
200 184 194 96 107 133 124 96 133 
194 197 207 58 93 96 207 196 194 
206 196 207 216 211 237 237 211 220 
237 220 245 42 49 58 58 49 93 
213 211 216 221 216 229 229 216 237 
222 221 229 229 237 245 42 44 49 
208 195 222 222 195 221 74 44 46 
44 74 72 74 46 73 74 73 82 
180 195 208 165 168 176 176 168 180 
56 82 77 77 82 89 149 168 165 
47 34 56 47 56 77 140 149 138 
149 140 157 140 170 157 157 170 188 
157 188 166 38 29 47 38 47 65 
139 166 178 178 166 188 62 38 65 
36 38 62 79 103 101 119 103 139 
119 139 172 239 230 244 224 230 239 
224 239 243 239 244 246 243 239 246 
184 146 158 210 223 230 133 107 132 
146 132 158 194 184 197 223 210 224 
220 243 245 96 93 107 209 224 211 
220 211 224 224 243 220 238 245 246 
203 205 207 74 82 80 81 36 79 
243 246 245 69 85 60 113 94 110 
187 200 196 81 101 105 46 50 84 
46 39 50 39 42 43 199 181 185 
161 185 181 185 143 167 117 159 143 
116 117 143 116 113 117 114 113 116 
97 113 114 84 68 92 43 42 53 
32 43 53 167 183 206 185 167 206 
143 159 167 117 110 127 113 110 117 
53 68 75 68 53 58 167 173 183 
159 173 167 110 124 126 110 94 124 
183 191 187 187 196 183 200 187 179 
179 187 190 182 179 190 163 160 179 
160 150 179 156 150 160 126 124 150 
108 114 116 108 97 114 84 50 63 
33 50 39 33 39 43 32 33 43 
161 143 185 161 116 143 84 63 68 
68 63 66 55 37 32 159 137 173 
127 137 159 127 129 137 117 127 159 
75 68 66 67 53 75 55 32 53 
183 173 164 110 123 127 123 110 131 
164 191 183 131 126 151 110 126 131 
187 191 190 163 179 182 151 160 163 
126 150 156 126 145 151 126 156 145 
160 151 162 162 156 160 145 156 162 
50 51 63 40 51 50 50 33 40 
63 51 66 45 33 37 33 32 37 
173 137 164 129 123 120 123 129 127 
67 75 66 85 67 66 55 53 67 
37 55 64 148 144 164 164 144 175 
64 55 67 175 191 164 175 163 191 
131 163 175 144 131 175 163 131 151 
191 163 190 151 145 162 51 85 66 
40 45 51 40 33 45 137 136 148 
129 136 137 129 120 136 45 64 48 
45 37 64 123 131 144 120 123 144 
69 67 85 64 67 69 51 76 85 
51 57 76 45 57 51 45 48 57 
142 148 136 142 144 148 136 120 142 
57 48 60 120 144 142 48 69 60 
69 48 64 60 76 57 76 60 85 
137 148 164 163 182 190 
POINT_DATA 252
SCALARS k float
LOOKUP_TABLE default
1.30466 1.16098 -0.00107896 1.25442 1.80862 -0.105007 1.11792 -0.373679 0.837799 
-1.41995 0.325644 0.127429 1.21109 -0.98433 0.138137 0.618761 0.410849 -0.565626 
-0.639343 -0.412291 -0.173744 0.0627155 0.224105 0.158835 0.64807 -0.279097 -0.263894 
-0.599969 -0.392116 0.126829 0.145069 0.057749 0.69877 0.675104 0.376782 -0.560849 
0.230735 0.513904 0.184854 0.120087 0.422221 -0.0652045 0.256946 -0.507144 0.550684 
-0.702435 -0.22995 -0.075749 0.405435 0.610338 0.578134 -0.972301 0.244176 -0.96424 
0.438057 0.422783 -1.23277 1.47365 -0.590353 4.31235 0.708998 0.341937 -0.0295756 
0.384865 -0.497626 0.324602 -0.0443728 -0.44742 -1.05065 2.49641 -0.8838 0.287893 
-0.555919 -1.70537 -0.784902 0.440782 1.8574 -0.36366 0.141857 0.0410118 0.346776 
-1.38874 -0.646359 -0.458667 -0.544016 -0.0896422 -0.835517 -0.330547 -1.64747 -0.157074 
1.07385 0.214239 -1.47277 -0.329812 -0.0338137 0.332366 -0.077903 0.439613 -0.560327 
0.441086 0.176786 -0.0409812 -0.448867 -0.13376 0.0840021 -2.40868 -0.189732 0.136169 
-0.32517 -0.0996441 -0.521474 0.0283649 0.122515 -0.317534 0.654091 0.0126255 -0.382978 
-0.485096 -1.58438 0.155948 0.931878 -0.0915295 0.329131 -0.474637 -0.00905776 -0.307333 
-0.411916 -0.7263 0.304237 0.656752 -0.551513 0.271517 0.347558 0.00425851 0.111543 
0.273008 0.543625 0.0875257 -0.185106 0.470441 -1.71717 0.159175 1.99544 -0.26804 
-0.858149 1.54852 0.373053 0.135987 1.03224 -0.828261 -0.831082 -0.696693 0.129358 
0.249602 0.13281 0.327388 -0.881628 -1.01055 0.248615 -1.02377 -1.29961 0.536016 
3.35846 -0.949654 -0.455501 -0.511849 0.0572652 -0.00930399 -0.0687312 0.822865 0.438555 
0.170704 0.161646 0.153551 -0.191758 0.401704 0.525198 0.293873 0.207052 -1.07564 
-0.65541 -0.4732 0.179245 -0.695406 0.260522 -0.0393414 0.325731 -0.768093 0.450191 
-0.587419 3.47816 -0.592721 0.168395 0.343838 -0.0849711 0.410769 0.0126774 0.292084 
-1.77608 0.110712 0.31974 -0.788047 -0.550778 0.0364796 -2.32607 -1.09814 -0.699299 
-0.349837 -0.294996 0.326497 2.59112 -1.86004 0.157529 -0.00425816 0.524946 0.890694 
-0.487891 0.373453 0.243833 0.259004 0.102426 0.852488 0.110511 -0.609944 -1.46362 
-1.93298 1.95747 0.368131 -0.604369 -0.164228 0.434834 0.58658 -0.0126375 0.329192 
-0.713278 0.795805 1.25925 0.508257 0.55803 2.27113 0.0101461 0.82841 -0.523986 
-0.344862 0.997151 0.548842 0.359276 -0.777394 1.85615 1.70972 1.03678 0.740246 

FIELD FieldData 7
h 1 252 float
15.7876 4.35893 2.40283 1.27828 1.93226 1.86826 2.44883 3.7927 8.11783 
1.36149 8.69191 3.58056 1.33495 1.43651 10.6967 2.13646 4.97894 0.720669 
0.878171 0.812732 0.848804 7.83403 2.54141 2.47024 2.64021 1.08901 1.66276 
0.352141 0.527022 1.43488 1.4363 5.61458 1.03292 4.66123 -0.503079 1.31793 
3.89215 5.45172 2.00531 1.96703 2.00116 2.08217 3.29024 2.79251 1.22545 
6.46119 1.53626 0.872926 3.3271 2.85189 2.76776 -0.257584 0.0317522 1.0059 
0.070684 0.726719 -2.34165 -0.939618 1.6335 0.562879 11.0158 1.29908 1.79793 
-5.66579 1.35381 1.59765 -1.77636 0.975819 -2.15742 -0.610653 -0.102723 0.601681 
1.50043 -0.784912 1.15267 -0.462083 6.94206 0.536425 2.20212 1.89404 1.6426 
1.57383 0.740891 1.07143 -1.41693 2.71842 -0.424958 0.965135 -0.467848 1.13022 
-0.705453 2.00681 1.49611 2.36895 3.13225 -0.0796889 2.55175 1.72641 -0.370864 
2.68788 1.81144 4.12913 -0.499098 2.12354 3.31231 2.02014 1.64398 2.80023 
1.22036 0.616295 2.56771 1.78392 2.81036 1.36193 1.61921 1.61933 1.32714 
0.890302 -0.560933 4.89943 0.174776 -0.312432 3.80624 1.69229 2.74307 0.648418 
2.46508 -0.210571 2.07002 0.126708 1.21623 3.76693 4.42657 2.75226 0.595253 
-1.74406 0.263372 0.751895 0.26512 2.4711 -2.57976 1.4054 6.45333 1.32263 
3.71927 1.33357 3.86186 1.19222 -0.0497037 0.615594 2.88347 5.64097 -1.45997 
2.90613 2.1225 0.0639135 1.45509 0.323367 4.87011 -0.0882965 3.03847 1.66073 
-0.106692 5.51653 1.20645 2.43212 1.4071 0.34087 0.929318 -3.65103 0.148868 
6.52625 4.86324 0.0796665 -1.52714 4.41874 3.15829 3.72151 2.43047 3.51032 
1.89437 1.05651 1.18877 0.947592 3.55072 1.45022 2.81148 2.32472 0.678424 
1.9165 2.12781 1.11318 2.57921 2.97158 2.68895 3.10867 1.2262 3.83969 
-0.239508 1.17305 3.5712 0.741164 1.16041 3.29554 0.285689 3.08593 1.46339 
1.97725 0.533719 -5.01215 -0.280776 0.926752 -1.4826 1.45213 1.31841 0.581287 
0.958838 3.80024 6.90615 2.60172 1.31697 0.60491 2.47768 5.73127 0.408784 
-3.10514 0.700715 0.00983438 0.120414 5.04033 -1.01329 4.50761 3.68797 1.05908 
1.81294 2.2768 3.6176 0.269549 5.14056 -1.19414 0.740782 10.5329 2.3622 
-0.571704 0.790278 0.95575 5.33988 2.95983 3.22579 1.70867 3.7883 0.92573 

kmin 1 252 float
34.4667 8.33276 4.74963 2.92348 4.1402 3.94352 4.40865 6.82031 16.8819 
2.62737 15.903 6.99338 8.05728 4.95455 20.3961 3.93825 9.13354 1.85168 
3.1641 1.53265 1.93464 15.3655 4.69872 5.70743 4.54892 2.19684 2.81278 
1.74056 1.89605 2.76898 3.0362 10.9829 3.36424 9.36248 1.8708 3.68206 
7.63106 9.01416 3.28459 3.87648 5.24706 3.78593 4.78095 5.11373 2.71735 
11.4152 2.17337 1.34095 4.78885 4.58558 5.30138 4.16125 1.37437 2.50001 
0.834903 2.98251 -1.87603 0.816552 2.06379 1.4991 20.3745 2.66671 2.97381 
-2.13808 2.82967 2.1716 -0.512948 2.69844 1.13087 -0.409299 0.512187 1.25921 
2.22903 0.576145 2.27582 1.14776 12.593 1.36522 2.423 4.13212 1.98542 
3.04202 2.55417 2.26979 -0.148746 5.64969 0.65038 1.28199 0.198028 1.556 
-0.31188 3.01596 2.26393 3.84535 3.84969 1.20447 4.39608 3.10689 0.302452 
3.62835 2.28352 9.29844 -0.348208 3.68949 4.22567 3.10407 2.86028 4.76638 
1.75225 1.25193 4.25662 2.2628 3.68438 2.20583 2.13051 2.26488 1.82312 
1.60649 -0.124534 10.5587 1.75341 0.223183 4.18505 2.75041 4.08353 0.856068 
3.20108 2.08998 3.16119 1.49594 1.76757 5.08296 6.27743 4.46543 1.87455 
0.238144 3.01925 0.9725 1.0637 3.00524 -1.57199 1.93439 9.54633 1.91267 
4.45428 3.76156 4.8554 1.84417 1.87649 1.27458 3.15424 6.44018 0.333497 
3.37403 3.25017 1.02161 2.19594 0.77017 5.51722 1.01332 4.02597 2.31094 
0.962792 6.88041 1.69287 4.32115 2.06226 1.08701 1.06135 0.600933 1.42873 
12.2005 9.11544 0.130154 -0.00614549 6.01969 6.1393 4.55171 3.70285 4.30827 
3.4773 1.79676 2.91386 1.28877 4.80704 1.71631 6.47446 3.59195 1.65638 
4.35522 5.26739 1.87838 4.69721 3.37062 4.78389 6.20701 2.78761 4.5892 
1.5713 1.82111 5.99936 1.95794 2.10717 4.58365 1.01397 4.7852 2.88606 
2.57483 1.65582 -3.29221 1.07985 1.53547 0.403482 2.17324 4.31424 2.938 
1.98602 9.65452 12.0831 4.28573 2.39979 1.95268 5.58907 17.9225 1.30874 
-0.541252 1.40645 0.552251 0.93721 7.48857 -0.365427 8.17305 6.43828 2.38169 
3.37591 6.21217 7.02274 2.20237 7.02201 -0.870665 4.47979 17.5457 4.19281 
0.793405 2.47701 2.80265 7.40568 4.63615 6.84664 3.16933 6.42194 2.41412 

kmax 1 252 float
-2.89152 0.3851 0.0560279 -0.366929 -0.275688 -0.207008 0.48901 0.765087 -0.646247 
0.0956037 1.48085 0.16775 -5.38739 -2.08153 0.997353 0.334668 0.824328 -0.410344 
-1.40776 0.0928166 -0.237036 0.302512 0.384102 -0.766952 0.73149 -0.018825 0.512742 
-1.03628 -0.842009 0.100793 -0.163599 0.246295 -1.29841 -0.0400233 -2.87696 -1.0462 
0.153241 1.88929 0.726031 0.0575891 -1.24474 0.378398 1.79953 0.471277 -0.266451 
1.50716 0.899153 0.404904 1.86536 1.1182 0.234144 -4.67641 -1.31086 -0.48821 
-0.693536 -1.52907 -2.80727 -2.69579 1.20321 -0.37334 1.65719 -0.0685627 0.622057 
-9.1935 -0.122055 1.0237 -3.03977 -0.746798 -5.44571 -0.812007 -0.717633 -0.0558428 
0.771826 -2.14597 0.0295263 -2.07192 1.29107 -0.292373 1.98125 -0.344029 1.29977 
0.105643 -1.07239 -0.126934 -2.68512 -0.21286 -1.5003 0.648282 -1.13372 0.704434 
-1.09903 0.997672 0.728297 0.892542 2.4148 -1.36385 0.707429 0.34592 -1.04418 
1.7474 1.33935 -1.04019 -0.649989 0.55759 2.39896 0.936212 0.427688 0.83408 
0.688463 -0.0193456 0.878807 1.30504 1.93634 0.518025 1.10792 0.973787 0.831152 
0.17411 -0.997332 -0.759845 -1.40386 -0.848046 3.42743 0.634178 1.4026 0.440767 
1.72908 -2.51112 0.978845 -1.24253 0.664891 2.4509 2.57572 1.03908 -0.684049 
-3.72627 -2.49251 0.53129 -0.533462 1.93696 -3.58754 0.876416 3.36033 0.732597 
2.98425 -1.09442 2.86832 0.540271 -1.97589 -0.0433881 2.6127 4.84176 -3.25343 
2.43822 0.994842 -0.893783 0.714245 -0.123437 4.223 -1.18991 2.05097 1.01052 
-1.17618 4.15265 0.720025 0.543092 0.751934 -0.405272 0.797285 -7.903 -1.131 
0.852043 0.611042 0.0291787 -3.04814 2.81779 0.177275 2.89132 1.15809 2.71237 
0.311445 0.316265 -0.536314 0.606418 2.29441 1.18414 -0.851503 1.05748 -0.299536 
-0.522217 -1.01178 0.347975 0.461204 2.57254 0.594013 0.0103359 -0.335203 3.09017 
-2.05031 0.524983 1.14304 -0.475615 0.213643 2.00743 -0.442597 1.38665 0.0407147 
1.37966 -0.588383 -6.7321 -1.64141 0.31803 -3.36868 0.73102 -1.67743 -1.77542 
-0.0683473 -2.05405 1.72923 0.917703 0.234144 -0.742856 -0.633715 -6.46 -0.491178 
-5.66902 -0.00502055 -0.532582 -0.696381 2.59209 -1.66116 0.842176 0.937669 -0.263534 
0.249976 -1.65858 0.21246 -1.66327 3.25911 -1.51762 -2.99823 3.52011 0.531586 
-1.93681 -0.896455 -0.891148 3.27409 1.28351 -0.395063 0.248017 1.15466 -0.562663 

hks 16 252 double
0.59343328754 0.60274616808 0.61209721122 0.62146236426 0.63081830434 0.64014267101 0.64941427665 0.65861329174 0.66772140288 
0.676721942 0.68559998603 0.69434242685 0.70293801221 0.71137735881 0.71965293916 0.7277590446 0.50304044841 0.51245106883 
0.52195315804 0.53152753457 0.54115485238 0.55081579369 0.56049126 0.57016255792 0.57981157658 0.5894209538 0.59897422823 
0.60845597526 0.6178519248 0.62714905959 0.63633569317 0.6454015271 0.64231009829 0.65068915033 0.65906977002 0.66743441404 
0.67576605149 0.68404834142 0.69226579734 0.70040393569 0.70844940612 0.71639010146 0.7242152461 0.73191546218 0.73948281335 
0.74691082643 0.75419449217 0.76133024616 0.67058297235 0.67824081623 0.6858633049 0.69343882596 0.7009563221 0.70840538124 
0.71577631896 0.72306025204 0.73024916219 0.73733594905 0.74431447184 0.75117957929 0.7579271276 0.76455398666 0.77105803471 
0.77743814218 0.64394738139 0.65212337879 0.66029464094 0.66844291787 0.67655089779 0.68460236988 0.69258236221 0.70047725335 
0.70827485682 0.71596447848 0.72353694777 0.73098462408 0.73830138043 0.74548256688 0.75252495649 0.75942667677 0.44661266539 
0.45432022981 0.4622290151 0.4703246958 0.47859157127 0.48701275175 0.49557036683 0.50424579148 0.51301988459 0.52187323433 
0.53078640448 0.53974017619 0.54871577941 0.55769510924 0.56666092252 0.57559701114 0.73029955596 0.73787981583 0.7453082403 
0.75257950033 0.75968948632 0.76663527919 0.77341511056 0.78002831347 0.78647526529 0.79275732435 0.79887676175 0.80483668978 
0.81064098834 0.8162942306 0.82180160905 0.8271688632 0.42088801952 0.42636978945 0.43207072011 0.43798927558 0.44412234564 
0.450465243 0.45701172894 0.46375406729 0.47068310561 0.47778838174 0.48505825331 0.49248004709 0.50004022449 0.50772455945 
0.51551832439 0.52340648005 0.65204015175 0.66017852376 0.6682518767 0.67624896388 0.68415946427 0.69197403739 0.69968436435 
0.70728317524 0.71476426342 0.72212248734 0.72935376056 0.7364550313 0.74342425238 0.75026034298 0.75696314361 0.76353336547 
0.47475717442 0.48380160695 0.49294908703 0.50218145441 0.51148037821 0.52082753204 0.53020476837 0.53959428915 0.54897880993 
0.55834171473 0.56766719902 0.57694039858 0.58614750203 0.59527584563 0.60431398904 0.61325177141 0.44815155447 0.45540012213 
0.46284734463 0.47048265829 0.47829419587 0.48626890936 0.49439271298 0.50265064357 0.51102703456 0.51950569983 0.5280701233 
0.53670365024 0.5453896762 0.55411182987 0.56285414628 0.57160122752 0.39451198177 0.39791459171 0.40159762359 0.40556228379 
0.40980803135 0.41433254397 0.41913171478 0.42419968049 0.42952888103 0.4351101492 0.44093282848 0.44698491576 0.45325322531 
0.45972356957 0.46638095198 0.47320976674 0.67874162976 0.68648918034 0.69416276132 0.70175115706 0.70924423279 0.71663300328 
0.72390968112 0.73106770405 0.73810174224 0.74500768627 0.75178261747 0.75842476275 0.76493343618 0.77130897004 0.77755263813 
0.78366657411 0.50810407847 0.5168269095 0.525623811 0.53447848665 0.54337465662 0.55229620783 0.56122734029 0.57015270725 
0.5790575469 0.58792780364 0.59675023707 0.60551251733 0.61420330553 0.62281231852 0.63133037772 0.63974944194 0.41725102649 
0.41899393173 0.42093378537 0.42308614258 0.42546514456 0.42808329824 0.4309512829 0.43407778834 0.43746938818 0.44113045126 
0.44506309292 0.44926716698 0.45374029817 0.45847795372 0.46347355154 0.46871860192 0.32598613482 0.32931435585 0.33287051953 
0.33665679748 0.34067383093 0.34492073097 0.34939510453 0.35409310492 0.35900950526 0.3641377923 0.36947027791 0.374998225 
0.38071198448 0.38660113967 0.39265465471 0.3988610235 0.41260972109 0.41306144665 0.41377140561 0.41475463172 0.41602443107 
0.41759219444 0.41946723786 0.42165667529 0.4241653263 0.42699566127 0.43014778528 0.43361946125 0.43740617163 0.44150121697 
0.44589584885 0.45057943354 0.38703859097 0.39263038874 0.39851859196 0.40469359597 0.41114369126 0.41785522015 0.42481276669 
0.43199937547 0.43939679412 0.44698573374 0.45474614095 0.46265747531 0.47069898545 0.4788499778 0.48709007205 0.49539943812 
0.32564646161 0.3301682515 0.33497681434 0.34006669034 0.34543036005 0.3510583723 0.35693950437 0.36306095006 0.36940853031 
0.37596692083 0.38271989055 0.38965054506 0.3967415689 0.40397546129 0.41133476014 0.41880224999 0.2749977539 0.27551733596 
0.27612100181 0.27681436168 0.27760273451 0.27849110239 0.27948407029 0.28058583182 0.28180014139 0.28313029341 0.28457910834 
0.28614892582 0.28784160446 0.28965852787 0.29160061629 0.29366834292 0.27375613662 0.27442305341 0.27524000498 0.27621457837 
0.27735337184 0.27866191813 0.28014462731 0.28180475056 0.28364436559 0.28566438375 0.28786457824 0.2902436323 0.2927992055 
0.2955280158 0.29842593469 0.30148809218 0.32759702466 0.32910097598 0.33067103344 0.33231769952 0.3340515093 0.33588290824 
0.33782212807 0.33987906253 0.34206314518 0.34438323121 0.34684748544 0.34946327858 0.35223709391 0.35517444597 0.35827981333 
0.36155658643 0.30292332035 0.30602313359 0.30933914486 0.31287497385 0.31663264867 0.32061257833 0.3248135555 0.32923278928 
0.333865967 0.3387073429 0.34374985119 0.3489852399 0.35440422168 0.35999663697 0.36575162511 0.37165779855 0.28090667123 
0.28102770727 0.28135521213 0.28189543397 0.28265340941 0.28363290162 0.28483635843 0.286264892 0.28791828107 0.28979499627 
0.29189224796 0.29420605573 0.2967313376 0.29946201649 0.3023911408 0.30551101565 0.3356072692 0.33755932103 0.33962450705 
0.3418094731 0.34412076109 0.34656473791 0.34914751984 0.35187489342 0.35475223462 0.35778442764 0.36097578562 0.36432997501 
0.3678499459 0.37153787013 0.37539508926 0.37942207387 0.28560344973 0.28377292079 0.28196386017 0.28018725774 0.27845382958 
0.27677391218 0.27515736545 0.27361348638 0.2721509347 0.27077767199 0.26950091498 0.26832710372 0.26726188467 0.26631010866 
0.26547584288 0.26476239601 0.31767378951 0.31782022975 0.31799310721 0.31819908621 0.31844528714 0.31873925859 0.31908893739 