# vtk DataFile Version 5.1
vtk output
ASCII
DATASET POLYDATA
POINTS 252 float
0.572259 0.576121 0.116193 0.522662 0.503645 0.04971 0.481414 0.529288 0.121535 
0.606394 0.535467 0.166309 0.654003 0.511914 0.095986 0.442394 0.531582 0.001018 
0.387638 0.49144 -0.044271 0.473751 0.489677 0.160447 0.357335 0.449442 0.124828 
0.332142 0.493872 0.085006 0.623692 0.414883 0.048347 0.673149 0.470946 0.139629 
0.267644 0.419802 0.002544 0.49346 0.445445 -0.050388 0.535765 0.38556 0.107496 
0.604704 0.410283 0.121398 0.547956 0.392381 0.065322 0.36155 0.386698 -0.051282 
0.506512 0.360508 0.021598 0.385111 0.344246 -0.031879 0.339866 0.374314 0.110926 
0.307252 0.339578 -0.088755 0.20929 0.363359 0.041367 0.359367 0.328648 0.056074 
0.428538 0.329305 0.079329 0.291802 0.416794 0.081801 0.201072 0.268903 -0.119312 
-0.736508 0.357407 0.142336 -0.772341 0.331065 -0.043086 0.329328 0.246885 0.046625 
-0.676174 0.337853 0.046797 0.21424 0.320001 0.071797 0.179985 0.326868 -0.054221 
-0.70369 0.336561 -0.017217 -0.588787 0.324015 -0.060232 -0.693299 0.295588 -0.059615 
-0.315014 0.274659 0.033026 0.333692 0.254073 -0.093857 -0.211087 0.293118 -0.064012 
-0.491425 0.329269 -0.035051 -0.755522 0.284929 0.188194 -0.491346 0.315324 0.033865 
-0.39194 0.270982 -0.023676 0.143335 0.231976 -0.108824 -0.216594 0.260969 -0.124027 
0.146709 0.230291 0.00011 -0.356266 0.219277 -0.115542 0.234568 0.222548 -0.201084 
-0.668907 0.311434 0.092734 -0.517427 0.224574 0.094579 -0.475582 0.252751 -0.092099 
0.278803 0.190177 0.076817 -0.118296 0.228723 -0.016797 0.36648 0.201612 -0.187246 
-0.393982 0.188439 0.080946 0.185877 0.210715 0.05691 0.455699 0.132445 -0.066463 
-0.200432 0.266828 0.042412 0.395777 0.140265 -0.261641 -0.809197 0.315746 0.190866 
-0.809638 0.232464 0.044024 -0.039775 0.196658 -0.044773 0.471364 0.141587 -0.153844 
0.167957 0.186801 0.105926 0.040595 0.199534 -0.048189 -0.702428 0.241471 0.078605 
-0.184126 0.194943 -0.134034 -0.268581 0.206753 0.103903 0.355707 0.198524 0.025616 
-0.766786 0.208577 0.152037 0.588097 0.103184 0.1449 -0.135123 0.099534 -0.168607 
-0.110832 0.185725 0.051697 0.368864 0.157446 0.076209 0.051279 0.184634 -0.153917 
-0.729163 0.23291 -0.012572 -0.633927 0.173192 0.044272 0.300366 0.144199 -0.304566 
-0.605495 0.22175 0.130446 -0.562312 0.220822 -0.102773 0.06382 0.12393 0.120291 
0.459512 0.123007 0.014467 -0.478091 0.184146 -0.084115 0.598091 0.087656 0.182923 
-0.518645 0.159967 0.057637 0.173569 0.175097 -0.269142 -0.073906 0.170229 -0.129196 
-0.227784 0.145775 -0.138833 0.451095 0.102922 0.123686 -0.540081 0.132011 -0.02997 
0.497428 0.087952 0.175432 -0.593252 0.157646 -0.053987 0.391856 0.112149 0.15626 
-0.446161 0.130595 -0.025272 0.257461 0.072085 0.105155 -0.26906 0.161748 -0.146117 
0.153814 0.074411 -0.324163 0.003011 0.135737 0.056065 0.291459 0.040029 0.140759 
0.357666 0.072392 0.250433 -0.319255 0.127216 0.09125 0.517638 0.034606 0.158003 
-0.349773 0.110176 -0.064689 -0.041868 0.051807 0.125578 -0.202005 0.086208 0.046182 
0.442713 0.07083 0.228117 0.28085 0.050248 0.32897 0.316332 0.042726 0.404511 
0.314627 0.069058 0.228118 0.046511 0.109647 -0.222472 0.185821 0.0789 0.160367 
-0.174934 0.071703 -0.165701 -0.224781 0.041678 -0.098566 -0.273286 0.067268 0.019856 
0.282247 0.01197 -0.355352 0.526904 0.026561 -0.189103 0.558566 0.022808 0.025703 
-0.285714 0.052853 -0.347837 0.03258 -0.007595 -0.238364 0.374036 -0.000379 0.308089 
0.51635 0.043128 0.062035 -0.256817 0.064171 -0.244902 -0.237643 0.006488 -0.291823 
-0.251812 -0.001159 -0.367211 0.467901 -0.002527 0.230654 -0.283021 -0.016231 -0.277682 
-0.307242 0.027874 -0.221052 0.404225 -0.041943 -0.318447 0.250147 -0.022774 0.271788 
-0.214416 -0.000139 0.008565 -0.208738 -0.003089 -0.204036 0.513344 -0.088995 -0.192808 
0.28589 -0.025229 0.379258 -0.211081 -0.024097 -0.131319 0.265394 -0.015277 0.175227 
-0.254801 -0.061511 -0.075525 0.534764 -0.054048 0.130451 0.066452 -0.124023 -0.249114 
-0.131706 -0.052086 -0.177428 0.129547 -0.015876 -0.326108 0.087821 -0.03834 0.1438 
0.34499 -0.082996 0.261498 0.445517 -0.0811 0.244842 0.195298 -0.116486 0.15923 
0.190719 0.00633 0.13085 0.50706 -0.056949 0.199107 0.124235 -0.13919 -0.297415 
-0.352446 -0.024216 0.01331 -0.415428 -0.062769 0.049208 -0.602722 -0.045228 -0.016814 
-0.163029 0.004284 0.119068 0.609844 -0.122244 0.229938 0.54155 -0.078786 -0.086446 
0.338858 -0.089405 0.165344 0.467762 -0.118192 0.17006 0.512171 -0.098696 0.117483 
-0.493515 -0.048514 0.014453 -0.567901 -0.056817 -0.06258 0.265805 -0.109237 0.105697 
0.538019 -0.100796 0.024084 -0.333352 -0.080012 0.09276 -0.597003 -0.12023 0.114251 
-0.799099 -0.056426 0.156614 -0.198823 -0.119676 -0.159799 -0.715507 -0.088203 0.071652 
-0.207699 -0.065926 0.068565 0.076832 -0.156911 0.105001 -0.463994 -0.08456 -0.050745 
-0.753009 -0.085174 0.139375 -0.565578 -0.133595 -0.09262 0.016371 -0.059344 0.110524 
-0.082407 -0.141364 -0.129716 0.390461 -0.126109 0.19932 -0.107003 -0.112455 0.07072 
0.041889 -0.099911 -0.198109 0.020535 -0.154713 -0.045065 -0.453217 -0.090681 0.094144 
0.566326 -0.137259 0.22761 -0.816696 -0.114806 -0.044144 -0.357576 -0.178018 -0.11638 
0.391881 -0.231861 -0.008654 0.271535 -0.134075 -0.324554 0.371575 -0.146498 0.129793 
0.606036 -0.152021 0.180571 -0.365685 -0.134055 0.103382 0.405898 -0.165834 0.08206 
0.565737 -0.191673 0.199788 -0.301447 -0.075043 -0.138959 -0.163531 -0.225471 -0.113264 
-0.73928 -0.118718 -0.027487 0.164174 -0.245688 -0.180833 0.446191 -0.173722 -0.041842 
-0.665571 -0.174621 -0.060134 0.379927 -0.173209 -0.246336 -0.633207 -0.163097 0.124501 
-0.734032 -0.167882 -0.038928 -0.51932 -0.13884 0.106088 -0.051904 -0.161959 0.002255 
0.228995 -0.227839 -0.243056 0.174623 -0.201236 0.107087 -0.204588 -0.187206 0.058265 
-0.780413 -0.152293 0.201821 -0.427066 -0.187777 0.048871 -0.715572 -0.138961 0.112073 
0.463953 -0.190065 -0.13446 -0.493255 -0.148216 -0.073655 0.141747 -0.22533 0.053634 
0.306649 -0.263759 -0.132568 -0.470259 -0.203095 -0.027629 0.089672 -0.220763 -0.091832 
-0.545965 -0.249717 -0.023684 -0.327561 -0.217135 0.057583 -0.832742 -0.104581 0.190136 
-0.185714 -0.254638 -0.030648 -0.8048 -0.209209 -0.034752 -0.725807 -0.200024 0.092523 
-0.501406 -0.200479 0.073401 0.27597 -0.273503 -0.085935 -0.632478 -0.222043 0.067804 
0.262144 -0.253353 0.10696 -0.340509 -0.237696 -0.030768 -0.827412 -0.213704 0.107865 
0.309252 -0.291062 0.028229 -0.738626 -0.212668 0.026528 0.142913 -0.245117 -0.084221 
0.133973 -0.351624 -0.019003 -0.796408 -0.2304 0.177113 0.210215 -0.281461 0.089109 
0.213395 -0.305414 -0.093186 0.275778 -0.380005 0.057384 0.260308 -0.410007 -0.042491 
0.182204 -0.408791 -0.0487 0.154039 -0.382197 0.074746 0.198536 -0.403002 0.10598 
0.10464 -0.469829 -0.012606 0.193015 -0.502754 -0.078153 0.28155 -0.495991 0.093129 
0.137566 -0.426636 0.105127 0.078525 -0.563766 0.057183 0.241556 -0.579887 -0.026122 
0.144449 -0.568926 -0.04691 0.304217 -0.512405 0.049208 0.093645 -0.582084 0.119739 
0.242725 -0.623964 0.092367 0.102811 -0.615569 0.035538 0.212401 -0.628331 0.009611 
0.189406 -0.609741 0.121335 0.101229 -0.646648 0.100077 0.247416 -0.728575 0.107785 
0.258721 -0.719826 0.038556 0.095706 -0.73761 0.039691 0.122556 -0.767414 0.106414 

POLYGONS 501 1500
OFFSETS vtktypeint64
0 3 6 9 12 15 18 21 24 
27 30 33 36 39 42 45 48 51 
54 57 60 63 66 69 72 75 78 
81 84 87 90 93 96 99 102 105 
108 111 114 117 120 123 126 129 132 
135 138 141 144 147 150 153 156 159 
162 165 168 171 174 177 180 183 186 
189 192 195 198 201 204 207 210 213 
216 219 222 225 228 231 234 237 240 
243 246 249 252 255 258 261 264 267 
270 273 276 279 282 285 288 291 294 
297 300 303 306 309 312 315 318 321 
324 327 330 333 336 339 342 345 348 
351 354 357 360 363 366 369 372 375 
378 381 384 387 390 393 396 399 402 
405 408 411 414 417 420 423 426 429 
432 435 438 441 444 447 450 453 456 
459 462 465 468 471 474 477 480 483 
486 489 492 495 498 501 504 507 510 
513 516 519 522 525 528 531 534 537 
540 543 546 549 552 555 558 561 564 
567 570 573 576 579 582 585 588 591 
594 597 600 603 606 609 612 615 618 
621 624 627 630 633 636 639 642 645 
648 651 654 657 660 663 666 669 672 
675 678 681 684 687 690 693 696 699 
702 705 708 711 714 717 720 723 726 
729 732 735 738 741 744 747 750 753 
756 759 762 765 768 771 774 777 780 
783 786 789 792 795 798 801 804 807 
810 813 816 819 822 825 828 831 834 
837 840 843 846 849 852 855 858 861 
864 867 870 873 876 879 882 885 888 
891 894 897 900 903 906 909 912 915 
918 921 924 927 930 933 936 939 942 
945 948 951 954 957 960 963 966 969 
972 975 978 981 984 987 990 993 996 
999 1002 1005 1008 1011 1014 1017 1020 1023 
1026 1029 1032 1035 1038 1041 1044 1047 1050 
1053 1056 1059 1062 1065 1068 1071 1074 1077 
1080 1083 1086 1089 1092 1095 1098 1101 1104 
1107 1110 1113 1116 1119 1122 1125 1128 1131 
1134 1137 1140 1143 1146 1149 1152 1155 1158 
1161 1164 1167 1170 1173 1176 1179 1182 1185 
1188 1191 1194 1197 1200 1203 1206 1209 1212 
1215 1218 1221 1224 1227 1230 1233 1236 1239 
1242 1245 1248 1251 1254 1257 1260 1263 1266 
1269 1272 1275 1278 1281 1284 1287 1290 1293 
1296 1299 1302 1305 1308 1311 1314 1317 1320 
1323 1326 1329 1332 1335 1338 1341 1344 1347 
1350 1353 1356 1359 1362 1365 1368 1371 1374 
1377 1380 1383 1386 1389 1392 1395 1398 1401 
1404 1407 1410 1413 1416 1419 1422 1425 1428 
1431 1434 1437 1440 1443 1446 1449 1452 1455 
1458 1461 1464 1467 1470 1473 1476 1479 1482 
1485 1488 1491 1494 1497 1500 
CONNECTIVITY vtktypeint64
237 246 236 7 9 8 243 236 246 
251 250 249 249 248 251 4 0 3 
3 15 11 4 3 11 90 70 88 
70 90 83 108 98 134 99 92 108 
92 98 108 90 92 105 92 99 105 
83 90 105 83 105 101 101 105 124 
108 134 106 124 105 119 64 43 74 
43 64 45 66 52 86 44 52 66 
44 38 52 42 38 44 42 44 46 
42 36 38 42 46 50 34 39 50 
50 39 42 34 79 35 79 34 50 
28 35 75 28 33 35 28 75 60 
32 21 26 33 34 35 193 204 207 
198 193 207 198 207 190 179 163 188 
193 131 204 137 190 209 174 137 209 
188 138 171 163 138 188 187 163 179 
138 174 171 133 138 163 135 133 163 
135 163 187 71 118 138 122 121 130 
125 130 133 133 126 125 125 122 130 
58 115 127 121 117 126 85 96 109 
74 85 109 139 181 146 139 114 181 
114 127 181 96 114 139 123 122 125 
117 123 125 126 117 125 114 77 127 
77 58 127 114 96 77 85 77 96 
122 123 121 117 121 123 17 13 19 
19 13 18 106 134 128 134 153 128 
124 119 142 124 142 145 101 124 145 
128 153 141 153 182 141 172 141 182 
154 142 172 136 145 151 177 145 142 
145 177 151 177 142 154 136 151 183 
154 186 177 154 155 186 183 151 177 
183 177 186 201 221 226 99 108 106 
105 99 119 99 107 119 132 106 128 
132 128 141 119 141 142 142 141 172 
99 106 107 107 106 132 119 107 132 
119 132 141 17 19 21 21 12 17 
22 12 32 12 21 32 6 13 17 
5 13 6 12 6 17 5 1 13 
240 235 239 231 230 235 234 235 240 
231 235 234 228 230 231 225 228 231 
228 217 230 204 191 207 224 228 225 
224 217 228 217 190 207 224 190 217 
209 190 224 197 213 188 171 197 188 
188 213 220 179 188 220 208 179 220 
205 179 208 210 169 208 169 205 208 
192 210 223 192 169 210 195 192 223 
189 192 195 214 178 195 175 174 209 
8 25 20 4 11 10 15 7 14 
9 25 8 3 7 15 0 7 3 
0 2 7 0 1 2 7 2 9 
2 5 9 249 243 248 246 247 251 
248 246 251 251 247 250 247 244 250 
241 243 245 243 246 248 20 25 23 
0 4 1 5 2 1 225 206 224 
209 224 206 206 175 209 197 200 213 
170 175 166 196 194 218 199 166 206 
191 159 185 203 201 215 215 201 226 
218 215 223 215 226 223 194 161 203 
203 215 194 194 215 218 196 218 216 
196 216 202 184 202 211 200 184 211 
199 206 227 222 219 227 185 222 180 
185 219 222 221 223 226 206 225 232 
227 206 232 227 232 229 222 227 229 
237 232 234 229 232 233 232 237 233 
229 233 236 229 236 241 233 237 236 
237 234 238 237 238 242 236 243 241 
242 238 244 242 247 246 247 242 244 
211 220 213 213 200 211 211 202 220 
202 208 220 216 218 210 208 202 210 
202 216 210 214 195 223 221 214 223 
191 185 180 166 175 206 170 197 175 
197 173 200 178 164 189 164 149 189 
152 159 191 152 116 159 156 148 167 
148 147 167 156 149 164 149 156 157 
152 115 116 104 113 129 129 135 147 
221 178 214 152 191 204 93 102 113 
113 84 93 93 84 89 81 116 56 
56 37 81 37 68 81 64 61 97 
97 61 72 52 72 61 84 76 89 
76 91 89 75 91 76 65 75 76 
75 69 60 29 68 37 37 23 29 
32 26 43 38 57 52 38 36 57 
42 41 54 39 41 42 21 19 37 
19 23 37 45 32 43 31 32 45 
31 22 32 30 41 39 30 39 34 
30 34 33 16 14 18 24 8 20 
48 40 65 51 55 63 80 97 103 
14 8 24 18 14 24 16 15 14 
14 7 8 10 15 16 10 11 15 
27 59 40 69 40 59 48 27 40 
65 40 69 59 60 69 63 80 110 
51 63 110 88 73 92 92 73 98 
88 92 90 80 103 140 73 94 98 
120 88 70 70 83 101 120 70 101 
71 138 111 133 130 138 130 111 138 
121 111 130 58 62 115 111 87 71 
111 126 112 111 121 126 86 74 109 
86 109 71 66 86 71 66 71 87 
95 66 87 77 53 58 77 47 53 
37 53 47 26 37 47 43 47 85 
26 47 43 43 85 74 44 66 95 
44 95 46 181 193 198 146 198 190 
146 181 198 146 190 137 127 193 181 
193 127 131 137 139 146 127 115 131 
118 109 139 118 137 174 118 139 137 
138 118 174 109 118 71 85 47 77 
109 96 139 23 25 31 33 27 30 
59 27 28 13 16 18 25 22 31 
25 12 22 1 4 10 1 10 16 
13 1 16 25 9 12 9 6 12 
9 5 6 245 249 250 244 245 250 
245 243 249 240 239 245 239 241 245 
240 245 244 240 244 238 238 234 240 
230 241 239 230 229 241 232 225 234 
225 231 234 222 229 230 217 222 230 
210 218 223 191 180 207 180 222 217 
180 217 207 28 27 33 235 230 239 
173 165 200 165 184 200 165 160 184 
185 182 219 80 144 110 94 110 144 
136 120 101 103 150 170 140 103 170 
144 80 140 98 94 144 98 144 134 
134 144 158 101 145 136 162 212 201 
170 166 140 144 140 143 134 158 153 
182 153 158 185 154 172 159 155 185 
155 136 183 155 154 185 168 162 201 
140 166 143 143 166 199 219 143 199 
158 143 219 172 182 185 182 158 219 
155 183 186 201 212 221 219 199 227 
246 237 242 184 196 202 184 176 196 
148 176 184 176 161 196 196 161 194 
164 203 161 203 168 201 164 168 203 
212 178 221 164 178 168 212 162 178 
178 162 168 136 155 159 170 173 197 
150 165 173 170 150 173 150 129 165 
165 147 160 160 148 184 147 148 160 
148 156 176 176 156 161 116 136 159 
116 120 136 150 104 129 116 81 120 
81 88 120 97 72 103 72 104 150 
103 72 150 67 100 104 104 100 113 
84 113 100 100 54 84 165 129 147 
156 164 161 171 175 197 171 174 175 
187 179 205 205 167 187 169 167 205 
157 167 169 157 156 167 189 169 192 
157 169 189 189 195 178 152 204 131 
147 187 167 187 147 135 149 157 189 
131 115 152 129 133 135 129 112 133 
112 126 133 113 112 129 62 116 115 
62 56 116 111 112 87 113 87 112 
102 87 113 95 87 102 53 56 62 
53 37 56 86 64 74 86 61 64 
86 52 61 46 95 102 82 46 102 
82 93 89 82 102 93 79 82 89 
50 82 79 50 46 82 79 89 91 
35 79 91 75 35 91 21 37 26 
58 53 62 68 73 88 81 68 88 
41 30 48 23 31 29 24 20 23 
19 24 23 19 18 24 59 28 60 
30 27 48 48 65 78 41 48 49 
49 48 78 41 49 54 36 42 54 
67 36 54 57 36 67 52 57 72 
55 45 63 55 31 45 51 31 55 
29 31 51 29 51 68 75 65 69 
78 65 76 84 78 76 49 78 84 
84 54 49 67 54 100 57 67 72 
72 67 104 63 64 80 80 64 97 
63 45 64 73 51 94 51 110 94 
68 51 73 158 144 143 
POINT_DATA 252
SCALARS k float
LOOKUP_TABLE default
1.3778 -0.960371 -0.386364 0.884689 0.795074 0.606984 0.606488 0.265352 0.0655819 
0.615464 1.51272 1.72891 -0.229826 1.03259 -0.117876 0.312015 -1.13956 -0.545755 
0.420343 -0.926749 0.62707 0.13159 0.324373 -1.43477 0.408244 -0.63955 -0.319303 
0.914581 1.70397 -0.679644 -0.212503 0.0974706 0.232218 -0.098927 0.183379 -0.181657 
0.234074 -1.2511 0.53366 0.45106 0.640206 0.259946 -0.932945 -0.399545 0.660751 
-0.463564 -0.322159 -0.0253103 -1.11059 -0.272357 -0.234508 -0.527619 -0.257319 0.00634813 
-0.548934 -0.619052 -0.0438473 0.371979 0.224169 2.21417 0.970721 -0.338607 0.262571 
0.304177 -0.221665 -1.44146 -0.38057 0.469565 -0.521394 1.61335 1.26977 -0.128858 
-0.489298 -0.365238 -0.129883 -0.40113 0.212751 0.255207 1.00381 0.365764 -0.0598435 
-0.00360227 -0.17287 2.58883 -0.27145 0.234013 -0.291716 -0.779835 -0.490478 0.278657 
-0.0323337 0.324153 -0.276872 -0.281409 -0.0805367 0.431499 0.207209 -0.246886 -0.180376 
-0.355039 0.264276 -1.0021 0.0456015 -0.167542 -0.692502 -0.478296 0.431553 2.60372 
-0.0653102 -0.168004 0.699649 -1.85386 -1.27552 -0.845157 0.257447 0.360375 0.425819 
2.15461 -0.297936 -0.551207 -1.30217 -0.249003 -0.272124 3.14591 0.0280714 0.469628 
0.942217 0.353053 0.547711 -1.74058 -1.42586 0.277826 1.3644 -1.55449 -1.48744 
-0.449003 -1.12314 0.238368 -0.82159 0.177175 -0.00658596 -0.265743 -0.620566 0.390529 
-0.938653 -0.556315 0.336247 0.1734 -0.514511 0.258824 0.499957 2.35918 0.0436655 
0.0016371 -0.874138 -1.16805 0.0937898 0.529419 0.0667597 0.198861 0.263487 0.0505018 
1.47198 -0.444951 -0.725867 -0.929956 0.299348 -0.633197 -0.0641941 0.416928 -0.5252 
-0.510412 0.126856 -0.191186 -0.54009 -0.8283 0.116779 -0.479054 1.72814 0.169671 
0.0900512 0.237711 -0.787833 1.00734 -0.0957183 -0.203807 2.30011 0.549874 0.584199 
-0.597855 0.222232 -0.187156 0.0891299 0.128923 0.321018 -0.583805 -0.188639 -0.306608 
0.22825 -0.141112 0.0369301 0.639729 -0.456655 -0.972048 0.368681 -0.624613 -0.671106 
0.105826 -0.734921 0.138171 0.855924 0.285824 1.49713 0.528558 1.50482 -0.827237 
0.177304 -1.09529 0.0681454 0.0196179 0.109274 0.235026 -0.809393 -0.391524 -1.11161 
-0.422665 2.00709 -0.538761 0.156717 -0.735206 -0.438352 -0.377902 -0.949779 0.438342 
0.136105 0.603676 0.314459 0.381457 0.372409 0.445365 0.521467 0.597701 0.600436 
-0.710359 -0.63508 -1.0421 -0.0192032 -0.267037 1.32439 1.62816 1.5613 1.91511 

FIELD FieldData 7
h 1 252 float
1.64577 1.20482 2.95631 2.08343 1.87041 2.38938 1.23822 1.22602 -0.466382 
6.1561 1.96925 8.64386 0.691004 1.54738 1.25932 4.4593 -1.36928 1.32857 
-1.63109 0.371586 0.460814 0.861504 4.49656 -0.190872 -0.264317 -0.155755 0.571781 
2.87817 10.8498 0.143987 3.61539 -0.0600545 1.56152 4.6094 5.51009 7.66337 
5.19325 1.2294 5.28357 6.62501 7.75396 3.3889 3.76653 1.89012 2.20646 
2.64764 2.19154 1.26555 0.83058 0.937189 4.29168 -0.00416282 2.53353 2.20446 
1.79493 -0.223406 2.55192 5.12885 3.47624 4.98112 4.61192 2.66371 3.3477 
1.40147 1.95424 3.43049 1.29151 1.08027 2.28347 4.23162 2.16833 1.47725 
1.18796 -0.211129 1.30936 4.98715 1.65681 2.60612 2.37857 4.40243 0.977404 
2.91547 0.619608 5.25099 1.0532 0.788372 0.606282 0.803485 2.69227 0.855992 
2.48897 7.25008 1.77717 -0.491062 0.333574 1.22151 2.19996 1.20042 0.290202 
2.22818 0.678175 3.78493 -1.07059 0.888475 0.0383159 5.11483 1.1197 0.316161 
1.43206 1.47161 1.04642 1.30487 0.494766 0.373936 3.28132 4.28772 3.45493 
0.245857 1.45697 4.50379 2.43058 -0.363565 3.18981 2.04693 5.89568 0.922503 
1.57347 3.93289 1.62415 0.671698 1.58435 3.7239 0.284604 1.05448 0.994681 
-1.37996 3.24198 0.683487 1.13306 2.10516 0.561616 2.72643 4.0397 0.743545 
0.492825 3.66163 1.85934 0.413553 1.43818 3.953 0.970727 -0.000728905 3.06435 
1.10326 2.56555 0.518954 2.25797 6.80255 -0.122402 3.00914 1.0338 3.65638 
2.54232 1.48984 2.66924 0.337893 0.550208 -1.46831 3.56605 3.00299 0.234111 
0.0623118 2.81447 1.11253 0.485697 1.96404 1.7196 -0.549925 4.35274 2.18626 
1.25916 2.91448 -0.0241332 0.624536 0.388526 2.65248 2.88387 0.632918 1.47086 
4.95736 1.75408 2.1915 6.5754 3.15438 2.04692 6.14029 1.656 2.83887 
2.5167 0.0657182 0.77787 6.50518 5.37941 2.57596 3.10155 2.33587 0.309376 
1.88873 1.12817 1.48918 3.75315 5.3069 0.428017 5.52686 5.54996 1.79957 
3.59746 1.47428 2.98732 0.50733 3.47579 2.76487 1.10957 5.04821 0.209228 
1.93883 4.087 -0.177192 0.481914 2.15549 1.00516 0.516457 -0.495108 0.10632 
0.475424 2.40535 2.21047 -0.347864 0.7227 0.724817 1.47055 -0.222332 1.91664 
2.06776 3.28172 1.84935 1.1245 4.17586 3.82157 1.76592 4.92422 1.52355 

kmin 1 252 float
4.18712 3.63676 6.1689 4.13084 4.38015 4.42158 3.19367 3.65743 1.57489 
12.0583 4.23988 17.4121 2.14393 4.93929 4.33578 9.94592 -0.152225 3.97659 
-1.23096 0.844473 1.7503 2.90242 8.83562 0.656545 1.06311 0.507316 1.80073 
6.53455 24.1898 1.81938 7.32926 0.284529 4.08372 9.67637 10.5484 14.6044 
11.0723 2.56106 11.0795 13.2561 16.7859 7.67411 8.18311 4.71959 4.2851 
6.07563 4.18236 2.63761 2.48468 2.54378 8.49733 0.606809 5.25257 4.05476 
4.25464 0.227403 2.81551 10.7978 4.88914 13.6106 10.6275 6.01773 4.5186 
2.57537 4.46777 7.57221 2.49639 2.31558 4.09794 8.83796 3.31505 2.96745 
2.78787 0.298646 2.78323 10.0373 4.02484 3.18066 5.57132 8.81407 2.00901 
4.32216 1.41651 8.23405 2.40214 1.16006 1.4577 1.77421 3.74832 1.52725 
4.3067 14.3095 2.69282 0.247917 0.57065 2.60132 3.27054 2.94259 1.51581 
4.08113 1.60254 4.67271 0.0349944 1.97925 0.695984 6.98959 3.42592 1.92714 
2.19485 2.68829 1.31224 2.75961 1.52851 1.3523 4.1268 5.36902 4.32882 
2.05496 2.70781 5.62723 2.81116 1.08027 5.30692 7.99494 6.19707 1.12865 
1.62911 4.75612 2.50388 2.57135 2.81032 5.16873 2.1354 1.86489 1.04541 
-0.0690206 4.78368 1.54569 2.0399 3.51394 1.06911 4.51297 6.74216 0.943078 
0.878503 4.77533 2.78659 1.37896 4.27657 8.16286 2.05932 1.18352 3.95679 
1.81046 4.04463 1.48092 5.74699 14.0511 0.156512 4.35644 2.45537 8.81686 
5.89725 3.00387 6.43339 1.25802 1.4521 0.0227595 7.57679 5.69855 0.414549 
0.897535 4.64242 2.6173 1.00834 5.31354 4.49901 0.161502 8.91967 4.11301 
4.29415 3.42873 0.377864 1.76176 1.02037 5.96598 5.53807 1.29992 2.71532 
10.2615 2.15128 3.5072 12.4136 4.6409 4.41066 12.1261 3.93177 5.90072 
3.92075 0.244519 1.87047 14.5389 11.4842 6.17048 4.84739 4.63362 2.42343 
4.08142 2.08236 4.24152 6.94983 11.1074 2.29143 11.1981 11.3815 4.01614 
6.98791 3.98907 6.28817 1.40487 6.96994 8.54889 3.29497 10.0013 1.76626 
4.95432 9.19976 0.324675 1.52826 4.86975 2.10118 1.52771 0.117155 0.599067 
1.34562 5.56147 5.56204 -0.257633 2.73296 2.50576 3.78396 0.820893 5.06713 
5.94234 7.5739 5.50511 3.58223 9.48523 8.42166 4.05041 10.4923 3.35447 

kmax 1 252 float
-0.895593 -1.22712 -0.256282 0.0360073 -0.639341 0.357191 -0.717237 -1.20538 -2.50766 
0.253873 -0.301385 -0.124433 -0.761919 -1.84454 -1.81714 -1.02732 -2.58633 -1.31945 
-2.03123 -0.101301 -0.828668 -1.17941 0.157496 -1.03829 -1.59175 -0.818827 -0.657171 
-0.7782 -2.49019 -1.5314 -0.0984863 -0.404638 -0.960689 -0.45758 0.471752 0.722364 
-0.685839 -0.10225 -0.512351 -0.00612262 -1.27797 -0.896318 -0.650058 -0.939342 0.127825 
-0.78035 0.200726 -0.106509 -0.823516 -0.669404 0.0860364 -0.615135 -0.18552 0.354156 
-0.66478 -0.674215 2.28834 -0.540109 2.06333 -3.64833 -1.40372 -0.690298 2.17679 
0.227575 -0.559287 -0.711228 0.0866281 -0.155041 0.469002 -0.374721 1.02161 -0.0129446 
-0.411938 -0.720903 -0.164504 -0.0629954 -0.711223 2.03158 -0.814178 -0.00920719 -0.0542054 
1.50879 -0.177291 2.26793 -0.295734 0.416685 -0.24514 -0.167241 1.63622 0.18473 
0.671231 0.190649 0.861518 -1.23004 0.0964967 -0.158295 1.12937 -0.541741 -0.935401 
0.375222 -0.246193 2.89716 -2.17618 -0.202303 -0.619352 3.24008 -1.18652 -1.29482 
0.669274 0.254926 0.780604 -0.149876 -0.538976 -0.604428 2.43584 3.20642 2.58104 
-1.56325 0.206125 3.38035 2.05 -1.8074 1.0727 -3.90107 5.59428 0.716352 
1.51783 3.10965 0.744413 -1.22795 0.358383 2.27907 -1.56619 0.244063 0.943956 
-2.69091 1.70029 -0.178712 0.226229 0.696376 0.0541257 0.939886 1.33723 0.544011 
0.107146 2.54793 0.932095 -0.551853 -1.40021 -0.256856 -0.117866 -1.18498 2.17192 
0.39606 1.08647 -0.443012 -1.23104 -0.445988 -0.401316 1.66184 -0.387766 -1.50409 
-0.812619 -0.0241992 -1.0949 -0.582231 -0.351684 -2.95937 -0.444678 0.307436 0.0536733 
-0.772912 0.986524 -0.392234 -0.0369465 -1.38546 -1.05982 -1.26135 -0.214199 0.25952 
-1.77583 2.40024 -0.426131 -0.512689 -0.243318 -0.661025 0.229673 -0.0340867 0.2264 
-0.346763 1.35688 0.875814 0.737189 1.66786 -0.31683 0.154523 -0.619767 -0.222981 
1.11266 -0.113083 -0.314728 -1.52849 -0.725404 -1.01857 1.35572 0.0381251 -1.80468 
-0.303958 0.173974 -1.26317 0.556469 -0.493583 -1.43539 -0.144416 -0.281619 -0.417006 
0.207017 -1.04051 -0.313538 -0.390211 -0.0183563 -3.01914 -1.07583 0.0951472 -1.34781 
-1.07667 -1.02575 -0.67906 -0.564435 -0.558764 -0.090863 -0.494801 -1.10737 -0.386428 
-0.394771 -0.750763 -1.14109 -0.438095 -1.28756 -1.05613 -0.842862 -1.26556 -1.23384 
-1.80682 -1.01047 -1.80641 -1.33324 -1.1335 -0.778518 -0.518574 -0.643821 -0.307378 

hks 16 252 double
0.71280250167 0.72379855938 0.73473507162 0.74559611911 0.75636666841 0.76703258698 0.77758064594 0.78799851204 0.79827473003 
0.8083986964 0.81836062542 0.82815150801 0.8377630639 0.84718768788 0.85641839035 0.86544873325 0.63015822407 0.64155354996 
0.65299862779 0.66446993865 0.67594422683 0.68739864827 0.69881090746 0.71015938175 0.72142323179 0.73258249742 0.74361817792 
0.75451229619 0.76524794614 0.77580932336 0.78618173882 0.79635161613 0.5760621836 0.58640639442 0.59695609476 0.60768369646 
0.61856053865 0.62955718439 0.64064372248 0.65179006849 0.66296625858 0.67414273013 0.6852905837 0.69638182103 0.70738955495 
0.71828818764 0.72905355491 0.73966303512 0.80537116944 0.81415026735 0.82283704456 0.83142596923 0.83991231235 0.8482920577 
0.85656180481 0.86471866713 0.87276016792 0.88068413573 0.88848860111 0.89617169598 0.90373155701 0.91116623393 0.9184736038 
0.92565129229 0.82617040491 0.83478155965 0.84327552592 0.85164943932 0.85990119164 0.86802932096 0.87603289793 0.88391141057 
0.89166464958 0.89929259568 0.90679531037 0.91417283118 0.92142507216 0.92855173061 0.93555220061 0.94242549414 0.52206116775 
0.52904464067 0.53635860392 0.54399160823 0.55192902086 0.56015317734 0.56864358827 0.57737719598 0.58632867427 0.59547076343 
0.60477463194 0.61421025506 0.62374680098 0.63335301463 0.64299758997 0.65264952211 0.46276118701 0.46507028372 0.46769591657 
0.47064464035 0.47392036135 0.47752418076 0.48145428738 0.48570590384 0.49027128917 0.49513979823 0.50029799712 0.50572983121 
0.51141684109 0.51733841976 0.52347210315 0.52979388518 0.57307665758 0.58425056723 0.59554393177 0.60692998303 0.61838177687 
0.62987241526 0.64137526157 0.65286414554 0.66431355468 0.67569880877 0.68699621471 0.69818319888 0.70923841533 0.72014182806 
0.73087476693 0.7414199571 0.41801457588 0.42321178091 0.42873205572 0.43456797415 0.44070906765 0.44714195221 0.45385051113 
0.46081612817 0.46801796422 0.47543326897 0.48303771842 0.49080576817 0.49871101236 0.50672653845 0.51482526837 0.52298027785 
0.42576724486 0.43280645504 0.44008875215 0.44760262489 0.45533448516 0.46326882093 0.47138838222 0.47967439439 0.48810679254 
0.49666447 0.50532553399 0.5140675611 0.52286784619 0.53170363857 0.5405523602 0.54939180206 0.7584123161 0.76817742719 
0.77787996771 0.78750819324 0.79705113901 0.8064986084 0.81584115172 0.82507003657 0.83417721047 0.8431552567 0.85199734377 
0.86069716911 0.86924889753 0.87764709508 0.88588665917 0.89396274591 0.84396889969 0.85166541854 0.85927467107 0.86679509435 
0.8742255997 0.88156548358 0.88881433618 0.89597194888 0.90303822169 0.91001307119 0.91689634014 0.9236877092 0.9303866117 
0.93699215238 0.94350303111 0.9499174726 0.35298592486 0.35410725659 0.35533732718 0.35668072188 0.35814147781 0.35972305743 
0.36142832435 0.36325952074 0.36521824553 0.36730543308 0.36952133215 0.37186548555 0.37433671082 0.37693308289 0.3796519198 
0.3824897725 0.44281998202 0.44993433856 0.45731467408 0.46494906288 0.47282318729 0.48092050365 0.48922244787 0.49770867442 
0.50635732181 0.51514529676 0.52404856898 0.53304246835 0.54210197692 0.55120200815 0.56031766741 0.56942448832 0.50019677453 
0.50864617589 0.51735965282 0.52631949652 0.53550599342 0.544897582 0.5544710415 0.56420170979 0.57406372634 0.58403029546 
0.59407396396 0.60416690692 0.61428121465 0.6243891739 0.63446353639 0.64447776822 0.69619393728 0.70675157836 0.71727028288 
0.72773624564 0.73813621677 0.74845751261 0.75868801919 0.76881618914 0.77883103308 0.78872210599 0.79847948914 0.80809376788 
0.81755600566 0.8268577144 0.83599082162 0.84494763465 0.54934148559 0.56067205122 0.57210192688 0.58360731782 0.59516408167 
0.60674791648 0.61833455066 0.62989993141 0.64142040788 0.65287290529 0.66423508635 0.67548549621 0.68660368794 0.69757032595 
0.70836726531 0.71897760611 0.37488705434 0.37692049744 0.37913289627 0.38152838487 0.38410988705 0.38687906218 0.38983626747 
0.39298053681 0.39630957621 0.3998197755 0.40350623554 0.40736281 0.41138216064 0.41555582451 0.41987429169 0.42432709203 
0.43011526576 0.4362640194 0.44275260158 0.44956711171 0.45669067427 0.46410367383 0.47178403782 0.47970755897 0.48784824819 
0.49617870791 0.50467051548 0.51329460622 0.5220216461 0.53082238489 0.53966798172 0.54853029646 0.30598622323 0.30904494257 
0.31225245826 0.31560605043 0.31910217068 0.32273647648 0.32650387684 0.33039858759 0.33441419454 0.33854372237 0.34277970703 
0.34711426932 0.35153918733 0.35604596589 0.36062590102 0.36527013828 0.35541131164 0.35732459849 0.35948159824 0.36188529624 
0.36453658124 0.3674342068 0.37057479364 0.37395287297 0.3775609695 0.38138972125 0.38542803241 0.38966325416 0.39408138728 
0.39866730035 0.40340495631 0.40827764073 0.28262253807 0.28258819731 0.28261914048 0.28271493269 0.28287519277 0.28309964861 
0.28338818427 0.28374087683 0.28415802135 0.28464014298 0.28518799545 0.28580254588 0.28648494655 0.28723649438 0.28805857988 
0.28895262737 0.30492100386 0.30482136544 0.30476271999 0.30474580778 0.30477143285 0.30484051363 0.30495412892 0.30511355682 
0.30532030428 0.30557612516 0.30588302529 0.3062432535 0.30665927805 0.30713374869 0.30766944527 0.30826921426 0.27495407408 
0.27574409545 0.27662695824 0.27760346912 0.27867410648 0.27983902672 0.28109807134 0.282450775 0.28389637441 0.28543381817 
0.28706177771 0.28877865906 0.29058261561 0.2924715614 0.29444318462 0.29649496099 0.39294887862 0.3953687274 0.39811140129 
0.40118177698 0.40458129495 0.40830792157 0.41235618321 0.41671727063 0.42137921022 0.42632709594 0.43154337424 0.43700817256 
0.44269966057 0.44859443263 0.45466789993 0.46089468035 0.31495961586 0.31781269495 0.32076310255 0.32381012469 0.3269525137 
0.330188508 0.33351585854 0.33693186038 0.34043338762 0.34401692988 0.34767862873 0.35141431225 0.35521952645 0.35908956244 