# vtk DataFile Version 5.1
vtk output
ASCII
DATASET POLYDATA
POINTS 252 float
0.437649 0.067154 -0.003939 0.397242 -0.032517 -0.046075 0.388244 0.161555 -0.045395 
0.417563 0.0782 0.057745 0.357885 0.049021 0.373454 0.36293 0.019144 0.259918 
0.36706 -0.040857 0.051589 0.340442 0.030581 -0.013456 0.336431 0.062811 0.04975 
0.394094 0.113093 0.206124 0.38813 0.079064 -0.053273 0.349189 0.219335 0.14991 
0.377885 0.019781 0.177738 0.375757 -0.115777 0.011591 0.348907 0.002269 -0.053857 
0.360274 0.121816 0.360149 0.399473 0.159448 0.030339 0.340115 -0.143257 -0.038523 
0.352185 0.157536 0.088756 0.309333 0.060645 0.183942 0.330263 -0.028263 0.03962 
0.338464 -0.242445 0.050261 0.262919 0.239602 -0.049132 0.30896 -0.261702 0.017384 
0.288568 0.101018 0.425131 0.346209 -0.169883 0.046274 0.304814 -0.128554 -0.011362 
0.288618 -0.163965 0.029402 0.323512 0.052107 -0.042794 0.324637 0.192954 0.323629 
0.306863 -0.006544 0.271155 0.257802 -0.278205 0.070926 0.288519 0.072508 0.113898 
0.298374 -0.025638 0.345396 0.303904 0.127677 -0.122961 0.280403 -0.21905 -0.011477 
0.220268 -0.012188 0.203289 0.234542 0.020458 0.414958 0.273987 -0.269661 0.164275 
0.196931 0.02234 0.327648 0.221311 0.014549 0.01733 0.283303 0.015071 -0.039723 
0.241528 -0.22949 0.115818 0.28012 0.246901 0.152183 0.230544 0.200848 0.274878 
0.280262 0.17698 -0.157276 0.258038 -0.020035 -0.097904 0.256256 -0.311403 0.15344 
0.185481 0.206058 -0.249146 0.260479 0.188211 0.360846 0.21991 0.085261 0.115273 
0.183778 0.127273 0.369643 0.22859 -0.265687 0.197576 0.186247 0.227184 -0.18372 
0.179574 0.041887 0.28504 0.215333 -0.056563 -0.086969 0.242868 0.226289 0.063772 
0.211319 -0.347022 0.30787 0.211404 -0.295381 0.281604 0.211672 0.011684 -0.163698 
0.19527 0.099621 -0.223063 0.210605 0.167926 -0.245539 0.176474 0.057579 0.07012 
0.215978 0.078075 0.178712 0.183535 0.046217 0.376523 0.218087 -0.316597 0.196511 
0.188445 -0.316621 0.267462 0.163996 0.277249 -0.000162 0.1902 0.199231 0.231179 
0.225217 0.228129 0.117423 0.134874 0.021763 -0.118974 0.187532 0.233548 -0.088463 
0.152102 0.092026 0.281832 0.134966 0.063609 -0.271942 0.153672 0.260138 -0.0824 
0.162706 0.157432 0.193 0.135436 0.022783 -0.024159 0.127218 0.14225 0.235219 
0.145492 0.25876 0.154586 0.104337 0.043735 -0.367818 0.140208 0.063748 -0.203546 
0.07164 0.073148 0.070043 0.106721 0.188872 -0.274083 0.165111 0.13396 -0.276085 
0.063265 0.271249 0.021463 0.074699 0.027453 -0.24986 0.063916 0.017118 0.010715 
0.155813 0.10389 0.152167 0.093513 0.285609 0.085888 0.089049 -0.047244 -0.265529 
0.124834 0.183346 0.190067 0.109917 0.254691 -0.195782 0.066373 -0.070309 -0.341675 
0.067571 -0.167234 -0.129623 0.085492 0.005783 -0.304709 0.067938 0.269255 -0.061444 
0.055347 -0.060301 -0.162955 0.060347 0.189915 0.198206 0.083141 0.230714 0.201707 
0.092135 0.133493 -0.375097 0.059483 0.282478 0.101385 0.027298 0.082503 -0.442435 
0.049952 -0.264356 -0.073553 0.06253 0.141611 0.099173 0.040307 -0.240335 -0.046135 
0.063903 0.281715 -0.150482 0.030203 0.189641 0.007636 0.006881 -0.19771 0.179131 
0.041405 0.058775 -0.070627 0.03956 -0.015307 -0.42958 0.042968 -0.20127 -0.215945 
0.01409 -0.291067 -0.11512 0.022965 0.236409 -0.15558 0.046831 0.105688 -0.155792 
-0.002648 -0.081924 -0.423196 0.0377 0.131293 0.049755 -0.020974 0.055574 0.013691 
-0.029608 0.025549 -0.237683 -0.001248 0.171483 -0.116981 0.028808 -0.346901 -0.051822 
-0.013932 -0.238701 0.181866 -0.003057 -0.242461 -0.004981 0.017415 -0.225076 0.149349 
0.025697 -0.338628 -0.002913 0.023793 -0.162393 -0.07568 0.034536 0.170701 0.136672 
0.019283 0.146892 0.161546 -0.003425 0.111608 -0.042169 0.042585 0.269288 0.154109 
-0.008658 -0.470686 -0.037473 -0.014482 0.004546 -0.461045 0.002272 -0.346311 -0.083039 
-0.00528 0.229673 -0.330033 -0.056754 -0.174322 -0.103027 -0.023682 -0.116648 -0.325417 
-0.02583 -0.218382 -0.22383 -0.034616 0.173261 0.073466 -0.038074 -0.20436 0.140981 
-0.020931 0.073053 -0.204298 -0.059046 -0.419863 0.002684 -0.006371 -0.454149 -0.081974 
-0.050591 -0.101627 -0.382374 -0.082662 0.13143 -0.183081 -0.096457 0.246628 -0.278791 
-0.030778 -0.291241 0.002571 -0.081485 0.183595 0.107124 -0.020863 0.190921 0.172305 
-0.024756 -0.286942 -0.126094 -0.07333 0.101916 0.07178 0.003083 0.167216 -0.394113 
-0.03709 -0.435708 -0.114047 -0.046254 -0.31796 -0.079965 -0.090617 0.060459 -0.198902 
-0.079434 -0.054119 0.132243 -0.072791 -0.498454 -0.112865 0.02357 0.246569 -0.216926 
-0.023159 -0.160409 0.133946 -0.045062 -0.098666 -0.1407 -0.06648 -0.248485 -0.06392 
-0.110597 0.202124 -0.38762 -0.080264 -0.171608 -0.208325 -0.121652 -0.547576 -0.012117 
-0.096017 -0.569306 -0.006154 -0.07893 0.183716 -0.184516 -0.076384 -0.104421 0.159058 
-0.111951 0.014971 -0.410316 -0.1576 -0.673691 -0.053658 -0.097866 -0.118565 -0.205455 
-0.069645 -0.343955 -0.031554 -0.108936 -0.026952 -0.251615 -0.0729 -0.387506 -0.101071 
-0.12714 -0.058046 -0.342864 -0.103523 0.011601 0.091443 -0.064616 0.084268 -0.44337 
-0.121995 0.027006 0.13591 -0.116711 -0.11571 0.089946 -0.134949 0.175266 -0.105101 
-0.125449 -0.450131 -0.029137 -0.088581 -0.064261 -0.293658 -0.077941 -0.182548 0.153525 
-0.084216 -0.588154 -0.046341 -0.091901 -0.056263 -0.417371 -0.231639 0.044028 -0.313828 
-0.182134 0.04248 -0.195209 -0.144442 -0.047465 0.147526 -0.132581 0.028318 0.067054 
-0.169257 -0.079992 0.103852 -0.15737 0.09099 -0.115254 -0.099961 0.216861 -0.209137 
-0.14253 0.092677 0.116446 -0.14973 -0.509884 -0.065826 -0.146233 -0.022608 0.056824 
-0.173674 -0.705968 0.013241 -0.189326 0.004401 0.111007 -0.207962 0.114435 -0.373475 
-0.188458 0.021444 0.064079 -0.185868 -0.777249 0.050712 -0.206781 0.177526 -0.353935 
-0.193029 -0.767137 -0.014254 -0.200172 0.047031 -0.131337 -0.195007 -0.81216 0.007045 
-0.198933 -0.705963 0.034527 -0.165989 0.220457 -0.249733 -0.194343 0.220392 -0.062469 
-0.184076 -0.630402 -0.051578 -0.269226 0.072864 -0.151375 -0.243241 -0.7231 -0.056045 
-0.207182 -0.677829 0.003715 -0.216957 0.029897 -0.249969 -0.251633 0.106304 -0.028176 
-0.250581 -0.75868 0.014709 -0.24823 0.111224 -0.225713 -0.23555 0.193403 0.002823 
-0.257246 0.105443 -0.29125 -0.238204 0.19382 -0.240491 -0.316169 0.227397 0.05004 
-0.24142 0.234629 -0.132918 -0.269407 0.076712 -0.071981 -0.327117 0.106865 -0.056994 
-0.299469 0.183418 -0.164572 -0.3096 0.12562 0.060939 -0.306129 0.17928 0.101874 
-0.353617 0.16637 -0.068467 -0.376132 0.230577 0.070002 -0.435783 0.215243 0.151593 
-0.378406 0.207815 0.02507 -0.414306 0.14815 0.060948 -0.411283 0.16998 0.151201 
-0.408859 0.138765 0.130233 -0.379815 0.125051 0.082834 -0.454688 0.230017 0.109681 
-0.505714 0.138606 0.086323 -0.48767 0.103371 0.148194 -0.515197 0.202786 0.091158 
-0.562968 0.133587 0.232899 -0.5702 0.217149 0.179923 -0.604912 0.108947 0.208098 
-0.556618 0.183864 0.244273 -0.575783 0.16362 0.123169 -0.644338 0.151442 0.210031 
-0.634112 0.118308 0.281498 -0.710788 0.070237 0.367216 -0.645543 0.150993 0.320262 
-0.675648 0.17211 0.277629 -0.709043 0.119828 0.279689 -0.725044 0.091721 0.399326 
-0.744459 0.038985 0.443806 -0.746803 0.121753 0.345615 -0.758828 0.073532 0.296287 
-0.777831 0.059023 0.398002 -0.817084 0.089146 0.303106 0.218809 -0.350601 0.259224 

POLYGONS 501 1500
OFFSETS vtktypeint64
0 3 6 9 12 15 18 21 24 
27 30 33 36 39 42 45 48 51 
54 57 60 63 66 69 72 75 78 
81 84 87 90 93 96 99 102 105 
108 111 114 117 120 123 126 129 132 
135 138 141 144 147 150 153 156 159 
162 165 168 171 174 177 180 183 186 
189 192 195 198 201 204 207 210 213 
216 219 222 225 228 231 234 237 240 
243 246 249 252 255 258 261 264 267 
270 273 276 279 282 285 288 291 294 
297 300 303 306 309 312 315 318 321 
324 327 330 333 336 339 342 345 348 
351 354 357 360 363 366 369 372 375 
378 381 384 387 390 393 396 399 402 
405 408 411 414 417 420 423 426 429 
432 435 438 441 444 447 450 453 456 
459 462 465 468 471 474 477 480 483 
486 489 492 495 498 501 504 507 510 
513 516 519 522 525 528 531 534 537 
540 543 546 549 552 555 558 561 564 
567 570 573 576 579 582 585 588 591 
594 597 600 603 606 609 612 615 618 
621 624 627 630 633 636 639 642 645 
648 651 654 657 660 663 666 669 672 
675 678 681 684 687 690 693 696 699 
702 705 708 711 714 717 720 723 726 
729 732 735 738 741 744 747 750 753 
756 759 762 765 768 771 774 777 780 
783 786 789 792 795 798 801 804 807 
810 813 816 819 822 825 828 831 834 
837 840 843 846 849 852 855 858 861 
864 867 870 873 876 879 882 885 888 
891 894 897 900 903 906 909 912 915 
918 921 924 927 930 933 936 939 942 
945 948 951 954 957 960 963 966 969 
972 975 978 981 984 987 990 993 996 
999 1002 1005 1008 1011 1014 1017 1020 1023 
1026 1029 1032 1035 1038 1041 1044 1047 1050 
1053 1056 1059 1062 1065 1068 1071 1074 1077 
1080 1083 1086 1089 1092 1095 1098 1101 1104 
1107 1110 1113 1116 1119 1122 1125 1128 1131 
1134 1137 1140 1143 1146 1149 1152 1155 1158 
1161 1164 1167 1170 1173 1176 1179 1182 1185 
1188 1191 1194 1197 1200 1203 1206 1209 1212 
1215 1218 1221 1224 1227 1230 1233 1236 1239 
1242 1245 1248 1251 1254 1257 1260 1263 1266 
1269 1272 1275 1278 1281 1284 1287 1290 1293 
1296 1299 1302 1305 1308 1311 1314 1317 1320 
1323 1326 1329 1332 1335 1338 1341 1344 1347 
1350 1353 1356 1359 1362 1365 1368 1371 1374 
1377 1380 1383 1386 1389 1392 1395 1398 1401 
1404 1407 1410 1413 1416 1419 1422 1425 1428 
1431 1434 1437 1440 1443 1446 1449 1452 1455 
1458 1461 1464 1467 1470 1473 1476 1479 1482 
1485 1488 1491 1494 1497 1500 
CONNECTIVITY vtktypeint64
241 246 249 51 72 64 180 129 162 
38 25 52 198 206 166 198 200 206 
180 192 166 180 162 192 23 47 31 
23 21 47 21 25 38 241 245 246 
64 72 39 54 39 72 51 49 44 
24 49 51 36 39 54 36 30 39 
4 9 15 30 5 33 12 5 30 
9 4 5 196 192 201 201 162 207 
192 162 201 52 42 65 31 47 65 
47 38 251 200 210 206 166 192 198 
192 196 198 21 38 47 249 246 247 
245 247 246 37 51 64 37 24 51 
24 29 49 15 29 24 33 37 64 
33 64 39 37 4 24 15 24 4 
4 37 33 30 33 39 5 4 33 
120 122 107 58 52 66 52 65 66 
201 207 210 38 58 251 65 47 251 
38 52 58 200 196 210 196 200 198 
210 196 201 65 251 66 251 58 57 
251 57 66 57 58 66 233 231 238 
34 41 59 59 55 70 92 93 110 
89 93 92 110 135 134 2 34 45 
60 34 59 59 70 80 89 96 93 
2 45 22 45 53 22 80 70 113 
157 96 117 157 117 169 167 157 169 
22 53 71 22 71 56 56 71 67 
113 70 108 67 71 74 74 105 95 
67 74 84 95 112 118 113 108 127 
118 113 127 74 95 84 106 95 118 
187 176 212 187 212 209 205 199 217 
199 187 209 199 209 217 205 217 218 
176 203 212 203 216 215 212 203 215 
225 215 216 219 222 225 216 219 225 
223 215 225 92 110 134 45 34 61 
45 61 48 61 34 60 61 60 83 
60 59 80 83 60 73 60 80 73 
73 80 85 85 89 94 96 89 85 
160 134 135 134 160 178 45 48 53 
80 113 85 117 96 85 178 160 167 
178 167 169 74 71 91 85 113 138 
85 138 117 117 152 169 117 138 152 
178 169 208 208 169 183 74 91 105 
113 118 142 113 142 138 142 118 163 
138 142 152 169 152 183 152 187 183 
95 105 112 118 112 163 142 163 176 
152 142 187 142 176 187 183 199 205 
183 187 199 176 188 203 203 188 216 
219 205 222 222 205 218 94 89 92 
114 92 134 114 134 141 94 79 73 
79 83 73 94 73 85 141 134 171 
134 178 171 141 171 181 48 61 83 
48 83 82 171 178 208 48 82 53 
71 53 91 53 82 91 91 82 155 
91 155 105 105 155 112 171 208 182 
163 112 188 112 155 188 163 188 176 
183 205 211 182 208 213 208 183 211 
208 211 213 188 202 216 202 214 216 
211 214 213 214 211 219 219 211 205 
214 219 216 94 92 109 109 92 114 
83 79 99 83 99 82 79 94 109 
181 114 141 82 99 132 182 181 171 
82 132 155 165 181 182 194 165 182 
155 132 143 155 143 188 188 143 202 
197 194 213 214 197 213 194 182 213 
202 197 214 79 109 101 99 79 101 
101 109 130 109 114 130 130 114 181 
173 130 181 99 149 132 99 101 149 
101 130 173 149 101 173 173 181 165 
159 132 149 149 173 159 173 165 194 
159 173 194 143 132 159 159 194 197 
143 159 197 143 197 202 144 158 168 
11 9 18 11 18 43 32 50 40 
50 63 87 40 50 62 50 87 62 
86 62 81 62 87 81 68 43 69 
68 69 90 69 78 90 81 87 103 
153 185 172 191 156 175 191 175 186 
90 78 98 103 87 97 103 97 126 
103 126 125 126 146 174 125 172 148 
172 125 126 172 126 174 148 172 185 
191 186 195 195 186 193 98 78 128 
126 97 146 97 98 146 98 128 146 
128 145 146 174 146 189 146 145 189 
174 189 193 227 234 232 227 237 234 
227 224 237 232 234 236 236 234 240 
237 235 243 237 243 242 243 235 239 
10 0 1 10 1 14 16 0 2 
3 0 16 7 10 14 28 10 8 
46 41 55 55 41 40 102 93 104 
104 93 124 41 28 40 55 40 76 
124 133 121 121 133 158 160 147 151 
160 151 158 18 16 56 16 22 56 
76 62 86 76 40 62 69 18 56 
43 18 69 108 76 86 86 81 116 
108 86 116 56 67 69 69 67 78 
78 67 88 81 103 115 116 81 115 
125 100 106 100 84 106 103 106 115 
125 148 136 185 191 195 128 78 88 
100 125 136 88 100 128 128 100 145 
100 136 145 145 136 148 145 148 195 
145 195 189 148 185 195 193 189 195 
229 220 228 220 221 228 228 221 227 
227 221 224 226 229 232 228 227 232 
229 228 232 226 232 231 230 233 235 
224 230 235 224 235 237 231 232 236 
231 236 238 238 236 239 233 238 235 
235 238 239 2 0 10 2 28 34 
2 10 28 34 28 41 46 55 59 
41 46 59 110 102 111 93 102 110 
135 111 147 110 111 135 160 135 147 
16 2 22 70 55 76 124 93 96 
124 96 157 160 158 167 70 76 108 
133 124 157 158 133 167 133 157 167 
116 127 108 116 115 127 115 106 127 
127 106 118 88 67 84 88 84 100 
84 95 106 212 220 209 217 209 220 
221 220 212 212 215 221 217 220 229 
217 229 218 218 229 226 221 215 224 
222 218 226 225 222 226 215 223 224 
223 225 230 230 224 223 225 226 233 
230 225 233 233 226 231 25 27 42 
52 25 42 35 31 42 42 31 65 
123 139 162 162 139 161 162 161 207 
207 190 204 161 190 207 204 166 206 
207 204 210 204 206 210 12 9 5 
28 8 40 147 131 151 111 131 147 
239 236 244 184 174 193 156 185 153 
156 191 185 151 168 158 144 121 158 
123 121 144 121 104 124 40 8 32 
12 19 32 3 16 18 32 3 18 
3 32 8 168 170 177 177 170 190 
190 170 154 168 151 170 131 170 151 
123 104 121 102 104 123 111 119 131 
111 102 119 3 7 20 6 3 20 
7 3 8 13 3 6 150 154 170 
131 140 150 150 140 154 131 150 170 
119 140 131 140 119 129 102 123 119 
26 35 27 14 17 26 20 7 26 
7 14 26 20 26 27 25 13 6 
1 0 13 0 3 13 17 23 35 
26 17 35 1 17 14 1 13 17 
13 21 17 17 21 23 249 250 248 
247 244 250 244 248 250 247 243 244 
242 243 247 243 239 244 241 240 242 
236 240 248 244 236 248 234 242 240 
234 237 242 186 184 193 184 153 174 
153 172 174 164 153 184 90 98 97 
87 90 97 179 184 186 179 164 184 
175 179 186 107 153 164 107 156 153 
75 54 77 77 68 90 75 90 87 
44 43 68 29 43 44 175 137 179 
175 156 137 63 75 87 54 75 63 
29 11 43 9 11 29 50 19 63 
63 19 36 32 19 50 9 12 18 
12 30 19 161 177 190 161 139 177 
139 168 177 144 168 139 139 123 144 
190 154 204 154 166 204 129 123 162 
140 129 180 129 119 123 27 35 42 
25 6 27 6 20 27 154 180 166 
140 180 154 31 35 23 13 25 21 
249 247 250 248 241 249 245 242 247 
241 242 245 248 240 241 44 68 51 
54 72 77 51 68 72 72 68 77 
29 44 49 107 164 179 120 107 179 
137 120 179 15 9 29 156 122 137 
137 122 120 107 122 156 19 30 36 
90 75 77 106 103 125 18 12 32 
63 36 54 10 7 8 
POINT_DATA 252
SCALARS k float
LOOKUP_TABLE default
0.571951 0.323271 0.0431743 -0.4619 0.621785 -0.03078 -0.0901318 -1.00514 -1.28113 
0.254071 -1.38119 0.605718 1.08036 -0.0930246 0.319831 0.355249 0.433762 0.17058 
-2.09686 0.00965023 0.206895 0.360933 0.221231 0.724085 0.763861 -0.875084 -0.0970956 
-0.852782 -0.722677 0.279479 -0.451132 0.169047 -1.6445 0.88236 -0.0375147 0.771097 
1.63299 1.04016 -0.215984 -0.037055 -0.146013 -0.266378 0.0826835 0.506534 -0.0401574 
-0.0598284 0.494565 -0.0837867 0.539373 0.506726 0.0171261 0.534003 -0.373896 -0.146728 
-0.0818839 1.53411 -0.13834 3.58361 1.02952 0.0734259 -0.335269 0.17895 -0.0923748 
-1.15772 0.447087 -0.0386845 0.982098 0.194009 -0.138232 -0.902507 -0.121304 -0.0415326 
-0.253224 -0.24731 -0.0804523 0.460326 -0.422505 0.475549 0.283719 0.159869 -0.99749 
-0.198693 -0.327677 -0.447646 -0.106191 -1.58243 0.504405 -0.398294 0.090688 0.0979265 
-2.714 0.0953344 -0.00976276 0.0358076 -0.435556 -0.232524 0.0843678 -0.0784737 0.620974 
0.219451 -1.07282 0.294517 -0.0194196 -1.05651 0.0742433 0.444154 -0.238574 0.903922 
-0.125418 0.106123 0.0821123 -0.234168 -0.315999 -0.550246 0.642495 -0.258134 1.85475 
-0.367453 -1.2052 -0.083851 2.36119 0.554386 2.41031 0.491519 -0.0536971 -1.08294 
-1.46567 -0.255058 0.45493 0.178628 0.399685 -0.723999 0.215139 -0.04916 -0.653972 
0.156232 0.21131 0.0308028 -0.140977 -0.0117611 0.271385 0.265785 -0.538831 0.22161 
0.236256 0.30151 0.0747427 -0.172465 -0.0491068 0.0520873 0.292445 -1.07872 -0.301764 
-0.412448 0.296533 -0.44774 -0.140981 0.0381705 -0.0953128 0.395078 0.0521269 -0.229773 
-0.270391 -0.926775 -0.00449508 -0.0358649 -0.214158 -0.00393611 -0.420313 -1.46045 0.224908 
0.10622 -1.03998 0.117305 -1.03659 0.212478 0.0510788 0.263652 -0.313886 0.10007 
0.0306049 0.41259 0.259936 -0.888738 0.168992 -0.291091 0.541873 -0.0587919 -0.63518 
0.0917041 0.00968802 0.35056 -0.449231 0.542156 0.281451 1.17102 1.80145 0.425351 
-0.203064 0.364974 2.56822 0.0374647 -0.182871 0.117665 -0.448645 0.201152 1.55367 
-0.106946 0.241354 -0.124128 1.31233 -0.644899 -0.115658 0.389717 -0.29766 -0.00978124 
0.108604 -0.0814376 -0.0514326 0.121057 0.104099 0.555495 0.0461417 0.0539894 0.0491765 
-0.615758 -0.782092 -0.0982485 -0.0507631 -0.430021 0.0750767 0.356031 0.241041 0.208077 
-0.127964 0.250206 -0.464328 -0.0621651 0.319148 -0.0829362 -0.267776 -0.247691 0.0103038 
0.201421 -0.541782 -0.0338469 3.87018 -0.0206633 -0.0654967 0.304319 2.87092 0.544473 

FIELD FieldData 7
h 1 252 float
3.80009 3.99452 4.38935 -0.833797 -0.0554245 2.09374 0.226148 -2.70032 1.72141 
2.45167 -0.907973 4.47274 -0.95517 1.76019 1.5933 3.63256 2.62997 6.37526 
3.13946 -2.31292 -3.36874 0.342051 3.01348 1.97008 5.11238 0.47122 1.331 
-0.162109 -1.06278 4.17427 0.412375 0.622344 0.502493 0.589298 -0.153979 2.54159 
0.113771 8.3709 0.694943 -0.254858 -0.123255 1.45409 0.959058 3.27188 0.695494 
4.08505 2.98011 0.18199 3.99098 3.3918 -2.3113 1.31261 1.3059 2.67827 
0.895815 0.265905 3.32812 9.68565 0.225786 1.42875 -0.0278054 2.14724 -0.894694 
-1.94778 2.09565 0.533051 0.196397 3.67884 0.883468 3.80168 0.066916 2.36006 
3.92851 -1.43322 2.68396 -2.35783 -0.0199656 3.09227 3.55467 1.66601 1.01536 
0.97782 2.64349 2.35687 2.81947 -1.56835 0.962174 -1.20571 3.12865 1.47211 
3.26556 2.36182 -0.17348 3.64598 -1.0922 1.04318 -1.07206 0.511992 3.43995 
4.7271 2.49138 5.15587 0.454694 0.945057 4.4436 1.5351 0.837043 1.25846 
-0.164612 0.300211 1.57672 1.8046 -1.61327 -2.25042 2.79893 0.0470736 4.90096 
-4.85162 0.513432 0.61771 -0.946875 -0.794819 -1.11846 7.2307 -0.753852 -3.35367 
-1.29102 -0.600096 4.52404 3.18826 5.78915 1.39157 2.18046 -1.01483 2.67869 
2.32509 0.611011 0.793903 -4.20381 -0.142219 2.38163 0.396063 -4.34133 1.17836 
0.343618 3.0871 2.88259 1.23494 0.406247 3.98187 2.21448 -0.544865 -5.49094 
-1.35954 5.36257 1.34395 -0.274953 -3.53287 1.95417 4.29982 -0.648547 0.175919 
5.71785 -0.432685 -0.37145 3.79215 2.0932 0.1931 2.0696 -1.59138 -0.788613 
-2.30219 -2.90074 6.48304 0.630195 1.34188 -1.73278 0.899217 -1.63091 -0.970341 
2.0921 3.16781 0.522233 0.600982 0.932484 -2.04675 7.92589 -5.56234 -0.300522 
2.72101 5.11955 0.194732 1.93898 1.53486 3.77486 0.424675 11.8191 2.30973 
2.2891 0.0978698 7.7714 3.06192 0.991697 -0.152177 7.31094 -1.00832 0.513101 
-0.615254 -0.997623 -1.07983 -0.238536 -0.73835 -1.75067 2.29678 4.40155 1.06247 
0.934738 2.19238 -1.04722 3.09454 0.652919 -0.696131 1.55975 0.6638 9.61278 
2.37431 -0.406441 3.12622 2.44822 3.41109 1.20949 7.07338 5.23223 3.34728 
0.723164 2.50038 10.622 7.59161 7.98308 5.61186 1.87065 1.1954 4.43184 
6.82473 3.46215 4.7139 2.06494 6.45948 6.74536 0.873444 -0.0930746 1.04378 

kmin 1 252 float
5.13763 5.42437 6.74449 0.38615 0.49049 3.37692 1.81834 -1.75745 2.69357 
3.44106 1.99679 6.53945 1.44453 2.59946 5.06192 5.13776 3.03843 11.2635 
4.88501 -1.6296 -2.61662 1.96637 4.2043 3.12139 7.22384 0.97586 2.10785 
1.11928 0.700159 6.85508 1.86567 1.33837 2.37419 3.04245 1.29552 3.76425 
1.45491 9.16772 1.37324 1.58249 0.194708 1.89998 4.71603 5.84375 2.25415 
6.30735 4.1585 0.702059 6.16864 7.93283 -0.525225 4.5354 4.78463 3.72921 
1.45512 0.763779 4.99184 16.5912 0.739809 2.23552 1.17246 2.51441 -0.0141012 
-0.706021 6.03612 1.15327 0.781078 6.23258 3.39285 6.20884 0.586306 3.52052 
8.22427 -0.539031 4.27891 -1.84755 0.665496 4.73461 4.55346 3.16304 2.51478 
2.25085 4.01015 3.31879 4.83128 0.675635 1.61687 -0.154188 5.04921 2.45386 
3.62223 3.18737 1.07837 6.78145 0.401483 1.98845 0.0297165 2.28445 4.57731 
8.43533 4.15004 8.51403 1.38552 2.62018 7.79385 2.25308 1.67683 2.45165 
0.200164 1.67746 2.84817 4.21707 0.233518 -1.18973 6.14368 0.85947 8.88147 
-1.22954 1.95775 1.25168 -0.463857 0.558967 -0.794777 13.2252 0.671728 -1.87425 
1.27217 0.467206 6.59326 5.46018 7.20052 3.19223 3.22609 -0.0924061 6.90321 
5.34065 3.34977 1.23705 -1.63109 0.474261 4.83191 3.72323 -2.15534 1.59569 
1.74038 4.38181 3.37958 3.68246 2.68345 6.93366 5.3765 0.737755 -1.39071 
-0.0151967 11.448 1.80411 1.43597 0.0585245 5.12827 6.11421 -0.300189 0.88381 
10.4469 2.05738 2.18242 4.65546 4.3561 1.32827 5.56592 1.63937 0.448393 
-1.07157 -0.362872 8.31233 3.6794 1.86421 0.306045 2.83572 0.489737 -0.541414 
3.94232 4.13565 1.31805 2.46996 3.05067 -1.31511 13.7997 0.0335622 0.271915 
5.06283 11.2372 0.71039 3.28448 4.1908 4.95359 2.65491 23.2547 4.67781 
4.33304 0.908869 12.9959 5.94539 1.77949 0.766908 16.0382 -0.236402 1.83019 
0.154007 1.33486 -0.430039 -0.0969316 0.0616645 -0.289857 6.77734 8.95413 1.63539 
1.6444 5.33769 -0.486406 5.90091 1.73843 0.622468 3.1723 0.981938 19.2064 
4.85997 0.545985 6.56687 5.28059 7.76169 1.77159 15.2242 11.0933 6.52037 
1.71047 4.2033 22.1711 15.074 16.5172 11.602 4.2707 3.37135 8.32619 
13.0085 7.23521 8.94922 4.0649 12.2521 14.6701 2.32499 1.11382 2.01302 

kmax 1 252 float
2.46256 2.56467 2.0342 -2.05375 -0.601339 0.810553 -1.36605 -3.6432 0.749257 
1.46228 -3.81273 2.40603 -3.35487 0.92092 -1.87533 2.12736 2.22152 1.48703 
1.39391 -2.99624 -4.12087 -1.28227 1.82266 0.818774 3.00092 -0.0334194 0.55416 
-1.44349 -2.82571 1.49346 -1.04092 -0.0936822 -1.36921 -1.86385 -1.60348 1.31893 
-1.22737 7.57409 0.0166486 -2.09221 -0.441218 1.00821 -2.79791 0.7 -0.86316 
1.86274 1.80172 -0.338078 1.81331 -1.14923 -4.09738 -1.91017 -2.17284 1.62732 
0.336507 -0.231969 1.6644 2.78015 -0.288238 0.621988 -1.22807 1.78008 -1.77529 
-3.18953 -1.84482 -0.087169 -0.388285 1.12511 -1.62591 1.39452 -0.452474 1.19959 
-0.367249 -2.32742 1.08902 -2.86811 -0.705427 1.44994 2.55588 0.168985 -0.484058 
-0.29521 1.27683 1.39495 0.807663 -3.81233 0.307479 -2.25723 1.20809 0.490363 
2.9089 1.53627 -1.42533 0.51051 -2.58589 0.0979033 -2.17384 -1.26047 2.30258 
1.01888 0.832731 1.79771 -0.476135 -0.730064 1.09334 0.817113 -0.00274534 0.065263 
-0.529388 -1.07704 0.305264 -0.607883 -3.46005 -3.31111 -0.54582 -0.765323 0.920443 
-8.4737 -0.930883 -0.0162609 -1.42989 -2.1486 -1.44215 1.23621 -2.17943 -4.83309 
-3.8542 -1.6674 2.45483 0.916339 4.37779 -0.409095 1.13483 -1.93726 -1.54583 
-0.690464 -2.12775 0.35076 -6.77653 -0.7587 -0.0686556 -2.93111 -6.52733 0.761025 
-1.05314 1.79239 2.38559 -1.21259 -1.87095 1.03008 -0.947542 -1.82749 -9.59117 
-2.70389 -0.722894 0.883792 -1.98588 -7.12426 -1.21994 2.48544 -0.996904 -0.531972 
0.988791 -2.92275 -2.92532 2.92884 -0.169707 -0.942066 -1.42672 -4.82214 -2.02562 
-3.53282 -5.43862 4.65375 -2.41901 0.819561 -3.7716 -1.03729 -3.75157 -1.39927 
0.241883 2.19997 -0.273588 -1.26799 -1.18571 -2.77839 2.05211 -11.1582 -0.872958 
0.379188 -0.998139 -0.320925 0.593475 -1.12107 2.59612 -1.80556 0.383532 -0.0583448 
0.245166 -0.713129 2.54689 0.178442 0.203907 -1.07126 -1.41634 -1.78024 -0.803987 
-1.38452 -3.33011 -1.72962 -0.38014 -1.53836 -3.21148 -2.18377 -0.151036 0.489554 
0.225074 -0.952938 -1.60803 0.288176 -0.432588 -2.01473 -0.0527972 0.345662 0.0191189 
-0.111345 -1.35887 -0.31443 -0.384147 -0.939512 0.647385 -1.07745 -0.628807 0.174196 
-0.264144 0.797467 -0.9271 0.109208 -0.55104 -0.378327 -0.529388 -0.980555 0.537498 
0.640951 -0.31091 0.478586 0.0649847 0.666829 -1.17935 -0.578105 -1.29997 0.0745345 

hks 16 252 double
0.42491583848 0.42309970023 0.42137220623 0.41973246803 0.418179402 0.41671192193 0.41532912531 0.41403046531 0.41281590096 
0.41168601892 0.41064212142 0.40968627624 0.40882132643 0.40805085875 0.40737913213 0.40681096849 0.55549102913 0.55570323843 
0.55615537046 0.55684340178 0.55776224743 0.55890597454 0.56026800793 0.56184131865 0.5636185875 0.56559233728 0.56775502891 
0.57009911872 0.57261707615 0.57530136329 0.57814437954 0.58113837662 0.38840997052 0.38444940418 0.38042527511 0.37633256376 
0.37216718656 0.36792609208 0.36360734583 0.35921020427 0.35473517788 0.3501840833 0.34556008374 0.34086771663 0.33611290688 
0.33130296413 0.32644656181 0.32155369612 0.34271456351 0.34334215026 0.34400388071 0.34469947675 0.34542946026 0.34619520607 
0.34699897097 0.34784389671 0.34873398579 0.34967404943 0.35066962813 0.35172688579 0.35285247971 0.35405340925 0.35533684713 
0.3567099578 0.7145972575 0.71733767845 0.72015866814 0.72305650813 0.72602649281 0.72906273206 0.73215796699 0.73530340776 
0.73848860156 0.74170133831 0.74492759995 0.74815155776 0.75135562018 0.75452053193 0.7576255228 0.76064850316 0.58790358726 
0.5885536484 0.58929216301 0.59012616126 0.59106198576 0.59210506266 0.59325966706 0.59452868981 0.5959134139 0.59741330865 
0.59902585035 0.60074637766 0.60256798919 0.60448148975 0.60647539016 0.60853596363 0.56272127089 0.56952631422 0.57669319719 
0.58419955889 0.59202029417 0.60012800588 0.60849347489 0.617086132 0.62587451624 0.63482670644 0.64391071425 0.65309483017 
0.66234791627 0.67163964268 0.68094066736 0.69022276147 0.49298597646 0.49301955737 0.49308531055 0.49318834557 0.49333446111 
0.49353020058 0.49378287197 0.4941005266 0.49449189361 0.49496626907 0.4955333613 0.49620309604 0.49698538773 0.49788988478 
0.49892569838 0.50010112542 0.33332381805 0.33045229325 0.32767519597 0.32498901545 0.32239033642 0.31987602185 0.3174433821 
0.31509032551 0.31281548616 0.31061832506 0.30849920205 0.30645941636 0.30450121467 0.30262776678 0.30084310949 0.29915206081 
0.59359349561 0.59346831431 0.593460267 0.59357349047 0.5938113989 0.59417655358 0.59467051887 0.59529370869 0.59604522939 
0.59692272596 0.59792223953 0.59903808421 0.60026275155 0.60158684997 0.60299908575 0.60448629034 0.41294794828 0.41223889174 
0.41146580097 0.41063521102 0.40975420065 0.40883040989 0.40787205283 0.40688792159 0.40588737732 0.4048803246 0.40387716623 
0.40288873618 0.40192620995 0.40100099231 0.40012458404 0.39930843041 0.63617642778 0.62778386335 0.6198488762 0.61237360903 
0.60535783885 0.59879920978 0.59269344111 0.58703450264 0.58181475256 0.57702503679 0.57265475189 0.56869187671 0.56512298047 
0.56193321647 0.55910631163 0.55662456237 0.41941403675 0.41659291587 0.413951858 0.41150225334 0.4092548134 0.40721940908 
0.40540489805 0.40381894542 0.40246784248 0.40135632939 0.40048742828 0.39986229366 0.3994800872 0.39933788354 0.39943061313 
0.39975104722 0.53405718493 0.5416423422 0.54949511458 0.55759090084 0.56590388501 0.57440743379 0.58307447634 0.59187785506 
0.60079063749 0.60978638236 0.61883935472 0.62792468825 0.63701849507 0.64609792586 0.65514118517 0.66412750834 0.57371423156 
0.57521289852 0.57683753652 0.57858921568 0.58046901583 0.5824780944 0.58461772368 0.58688929302 0.58929427328 0.59183414303 
0.59451027834 0.59732381017 0.6002754552 0.60336532777 0.60659274174 0.60995601179 0.77076982526 0.77222081228 0.77384822939 
0.77562309973 0.77751677401 0.77950115556 0.78154888754 0.78363350379 0.7857295453 0.78781264479 0.78985958202 0.79184831278 
0.79375797408 0.79556886851 0.79726243057 0.79882117816 0.35499629859 0.34924301043 0.34358071554 0.33800750523 0.33252193051 
0.32712315302 0.32181107821 0.316586468 0.31145103087 0.30640748781 0.30145961279 0.29661224705 0.2918712867 0.28724364377 
0.28273718105 0.27836062185 0.64884504923 0.65880553416 0.66903060253 0.67950136143 0.69019656757 0.70109283667 0.7121648828 
0.7233857802 0.73472723952 0.74615989023 0.75765356166 0.76917755529 0.78070090227 0.79219260108 0.80362183158 0.81495814326 
0.28421417369 0.28185325614 0.27960836407 0.27748952809 0.27550670162 0.27366958167 0.27198742517 0.270468867 0.26912174558 
0.26795294167 0.2669682357 0.26617218785 0.26556804465 0.2651576747 0.2649415351 0.26491866915 0.44728589765 0.4425975335 
0.43780481024 0.43292915902 0.42799334847 0.42302128353 0.41803778231 0.41306833214 0.40813882668 0.40327528595 0.39850356257 
0.39384903755 0.38933631034 0.38498888839 0.38082888214 0.37687671199 0.57704314341 0.57885861427 0.58100483324 0.58347762101 
0.58627031498 0.58937399065 0.592777708 0.59646877151 0.6004329927 0.60465494512 0.60911820234 0.61380555171 0.61869917833 
0.6237808158 0.62903186275 0.6344334662 0.797841964 0.81514469553 0.8326942157 0.85043394867 0.86830703756 0.88625685873 
0.90422749279 0.92216414699 0.94001352547 0.95772414543 0.97524659923 0.99253376308 1.0095409547 1.0262260425 1.0425495107 
1.0584744831 0.51475494734 0.50415722059 0.49341178569 0.48253501257 0.47154382954 0.46045572038 0.44928871832 0.43806139475 
0.42679284062 0.4155026395 0.40421083147 0.39293786748 0.38170455426 0.37053199011 0.35944149187 0.34845451359 0.85403251275 
0.87069504721 0.88770053533 0.90499176461 0.92250955013 0.94019340636 0.9579822094 0.97581483545 0.99363076254 1.0113706242 
1.0289767056 1.0463933756 1.0635674489 1.0804484764 1.0969889633 1.1131445156 0.7429707957 0.7482406042 0.75343322623 
0.75853542693 0.76353414096 0.76841644856 0.77316954965 0.77778073866 0.78223738287 0.78652690599 0.7906367786 0.7945545163 
0.79826768598 0.8017639203 0.80503093999 0.8080565837 0.77527681931 0.79276977835 0.8104458611 0.82825440332 0.84614460835 
0.86406594418 0.88196850923 0.8998033636 0.91752282327 0.93508071591 0.9524325978 0.96953593203 0.98635022883 1.0028371495 
1.0189605757 1.0346866468 0.63337980219 0.63952352244 0.64586842346 0.65241035485 0.6591438213 0.66606196593 0.67315656422 