# vtk DataFile Version 5.1
vtk output
ASCII
DATASET POLYDATA
POINTS 252 float
0.85499 -0.069358 -0.094562 0.899553 -0.044815 -0.016115 0.838586 0.00395 -0.043376 
0.852153 -0.127876 -0.04607 0.859497 -0.189033 0.002801 0.858508 0.023404 -0.064089 
0.81943 -0.080921 -0.031961 0.818819 -0.169592 -0.017866 0.725234 0.131543 0.024271 
0.883166 0.02334 -0.000319 0.828377 -0.017972 0.05867 0.809887 -0.090259 0.039781 
0.816863 0.090084 -0.011904 0.884538 -0.153504 0.074177 0.818566 -0.209844 0.042433 
0.900708 -0.029317 0.110883 0.734637 0.148303 0.019438 0.877664 -0.150181 0.138251 
0.812713 0.053598 0.009201 0.842241 0.077945 0.060868 0.767092 0.068128 0.073559 
0.818474 -0.130018 0.084427 0.593026 0.106293 0.033775 0.631536 0.089586 0.076165 
0.028383 -0.144631 -0.251206 -0.048622 -0.096304 -0.29428 0.756813 0.135737 0.104687 
-0.027528 -0.056769 -0.288585 -0.051473 0.035474 -0.273123 0.002909 -0.197477 -0.23993 
0.044773 -0.105021 -0.218918 0.851513 -0.09827 0.182932 0.841295 -0.027172 0.168569 
-0.186435 -0.098531 -0.343434 0.854341 0.006733 0.169486 -0.177851 -0.057756 -0.328694 
-0.228887 0.086581 -0.358226 -0.092571 0.004817 -0.315768 0.746256 0.110505 0.161033 
0.803715 0.035931 0.137122 -0.015509 -0.028714 -0.226814 -0.259713 0.116469 -0.34283 
-0.046798 -0.17108 -0.242 0.084045 0.171055 -0.183456 0.139137 0.141615 -0.164801 
0.466755 0.063515 0.005155 -0.189506 -0.207929 -0.32559 -0.254237 0.05609 -0.368432 
-0.133755 -0.176304 -0.298695 0.159695 0.185213 -0.132866 0.23437 0.018975 -0.101343 
-0.199868 -0.051713 -0.305279 0.621365 0.153846 0.036772 0.717426 0.099489 0.135795 
-0.165421 0.018847 -0.29245 0.204555 0.054246 -0.109952 -0.080761 0.063973 -0.236017 
0.407462 0.070138 -0.014623 0.625844 0.145892 0.105585 0.25751 0.076063 -0.100605 
-0.260132 -0.001576 -0.336564 -0.225163 -0.20661 -0.278771 0.060676 -0.18942 -0.171543 
0.350787 0.031455 -0.043059 -0.138871 0.094227 -0.297442 -0.123113 -0.07094 -0.271881 
0.202805 0.110539 -0.106722 0.431279 0.094685 0.029068 0.65313 0.120938 0.151912 
-0.253076 0.000816 -0.313637 0.053574 0.325971 -0.135027 0.491144 0.031544 0.03856 
0.521666 0.126863 0.050143 -0.121285 0.137723 -0.23534 0.117415 0.2187 -0.109224 
-0.229272 -0.145945 -0.283335 0.009442 0.267122 -0.191315 0.087724 0.257409 -0.169848 
-0.134797 -0.292681 -0.220123 -0.112021 -0.066798 -0.224653 0.305372 0.076174 -0.051186 
0.146041 0.123236 -0.069899 -0.075164 -0.153299 -0.215375 -0.107521 0.027863 -0.223562 
0.316263 0.081509 0.010219 0.277146 -0.006645 -0.052607 -0.017148 -0.112186 -0.18861 
0.127295 0.06046 -0.135881 -0.177008 -0.255787 -0.206618 0.437758 0.088042 0.073566 
0.409158 0.001872 0.019301 0.050047 -0.168946 -0.149701 0.521272 0.064418 0.113556 
-0.148455 -0.383919 -0.182704 0.292795 -0.005975 0.007731 0.058429 0.110518 -0.11967 
0.560689 0.124476 0.120034 0.011545 0.205845 -0.164164 0.236413 0.079846 -0.03935 
-0.194834 0.164004 -0.250059 -0.200066 -0.326588 -0.249374 -0.012335 0.338294 -0.159074 
-0.207939 -0.157345 -0.271103 -0.023444 -0.266896 -0.154623 0.024093 -0.265967 -0.152536 
-0.148552 -0.313692 -0.248198 0.420167 0.021714 0.051603 0.020438 0.324013 -0.103573 
0.090786 0.068586 -0.075217 -0.228437 -0.32486 -0.209637 0.394608 0.021227 0.090883 
-0.232896 -0.274644 -0.18896 -0.00675 0.209736 -0.110338 0.191633 0.007767 -0.036018 
0.439649 0.062798 0.106617 0.197768 0.044968 -0.010038 -0.089975 0.265285 -0.126902 
0.318971 0.044253 0.053377 0.291304 0.014215 0.044215 -0.208705 0.039966 -0.238783 
-0.210378 0.082763 -0.200759 -0.06311 -0.267505 -0.102504 -0.112428 0.337321 -0.140257 
-0.005794 -0.190574 -0.111317 -0.165182 0.118517 -0.189942 -0.072131 0.377388 -0.048499 
-0.058167 -0.20277 -0.121638 -0.066389 0.24218 -0.105177 -0.189534 0.190828 -0.190299 
-0.093539 0.393421 -0.100137 -0.185996 -0.324392 -0.152488 0.031174 0.264935 -0.101046 
-0.220991 -0.384373 -0.192818 -0.021416 -0.323329 -0.031891 0.01564 -0.220494 -0.052594 
-0.256803 0.128025 -0.235962 0.057973 -0.250129 -0.064286 -0.078915 0.325473 -0.048663 
-0.093744 -0.275959 -0.028561 -0.238752 0.212559 -0.119992 -0.142634 0.307745 -0.025527 
-0.317154 0.130835 -0.170191 -0.194126 -0.420859 -0.05513 -0.159505 -0.370739 -0.134535 
-0.280795 0.166125 -0.105758 -0.06164 -0.234585 -0.035991 -0.30461 0.127976 -0.138585 
-0.289859 0.200035 -0.198577 0.024448 -0.265121 0.040539 -0.232628 0.296807 -0.020468 
-0.251219 -0.328489 -0.092467 0.025678 -0.299245 -0.04341 -0.352976 0.189237 -0.142098 
-0.291044 -0.391191 -0.014223 -0.269669 0.228694 -0.158133 -0.039889 -0.228052 0.070474 
-0.371648 0.14707 -0.085163 -0.138106 0.358686 0.008175 -0.164186 0.387654 0.043928 
-0.025438 -0.307582 0.092891 -0.236392 -0.32658 -0.049548 -0.30769 0.244649 -0.023594 
-0.279711 -0.271145 0.063859 -0.399129 0.250427 0.026649 -0.206363 0.373677 -0.061179 
-0.349027 0.240565 -0.105582 -0.157332 0.415298 0.000805 -0.220086 -0.398988 0.029198 
-0.241162 -0.427829 0.001042 -0.267088 0.255805 0.043582 -0.237616 0.387287 0.000651 
-0.304119 -0.275574 0.036208 -0.286409 -0.332271 -0.015381 -0.212566 -0.360049 -0.005876 
-0.106796 -0.300834 0.047879 -0.421492 0.215894 0.004845 -0.238164 0.259575 0.058786 
-0.031422 -0.242094 0.167769 -0.117705 -0.246476 0.050023 -0.362194 0.159451 0.009078 
-0.210339 0.303652 0.091228 -0.089903 -0.209011 0.112546 -0.263033 0.358538 0.131028 
-0.307238 -0.352427 0.113324 -0.039145 -0.212829 0.155256 -0.093701 -0.30918 0.128183 
-0.402648 0.152681 0.00246 -0.315545 -0.300397 0.162146 -0.311526 0.306014 0.071676 
-0.200114 -0.160262 0.190965 -0.077502 -0.2842 0.171294 -0.279975 -0.289683 0.120232 
-0.226586 0.326584 0.136952 -0.373903 0.242648 0.072414 -0.335833 0.213396 0.032289 
-0.300404 0.152734 0.105843 -0.309439 0.331888 0.101666 -0.13855 -0.131705 0.20814 
-0.348276 -0.204315 0.088999 -0.340568 0.163504 0.135929 -0.078687 -0.161416 0.237308 
-0.459174 0.163962 0.074692 -0.412737 0.083835 0.114583 -0.218733 -0.164057 0.228233 
-0.10226 -0.187818 0.268458 -0.25316 0.198178 0.150614 -0.166003 -0.246444 0.158566 
-0.409671 -0.191897 0.118283 -0.391433 0.129872 0.123962 -0.35089 -0.172907 0.155266 
-0.260806 0.219333 0.210166 -0.347226 -0.314884 0.072263 -0.387747 -0.098375 0.143475 
-0.280919 0.297355 0.185453 -0.26733 0.148599 0.14164 -0.450779 0.084041 0.103864 
-0.44065 0.151331 0.195033 -0.311771 0.090105 0.173269 -0.229387 -0.03284 0.226936 
-0.451264 -0.028042 0.156462 -0.251243 -0.114032 0.242438 -0.335917 0.114383 0.229907 
-0.235111 0.037021 0.233898 -0.440751 0.200212 0.109024 -0.410303 -0.019741 0.157533 
-0.354659 0.195476 0.178773 -0.179174 -0.054776 0.253343 -0.293952 0.019949 0.244543 
-0.328105 0.226952 0.210814 -0.233125 0.116899 0.233595 -0.413953 -0.222077 0.175645 
-0.364201 -0.171974 0.214978 -0.202471 0.069667 0.311991 -0.400342 0.056064 0.18662 
-0.382083 -0.198189 0.215662 -0.17159 -0.201573 0.276709 -0.278732 0.196914 0.254459 
-0.138119 -0.07812 0.308349 -0.409328 0.148923 0.181611 -0.482705 0.129313 0.154823 
-0.454293 -0.120885 0.189 -0.238068 -0.10229 0.317253 -0.180408 -0.093297 0.333596 
-0.305846 0.114401 0.290743 -0.424013 -0.029435 0.263245 -0.385706 -0.029103 0.229066 
-0.216672 0.067267 0.3499 -0.438558 -0.113959 0.225732 -0.287729 0.01486 0.326169 
-0.430004 0.083911 0.232401 -0.47952 -0.007386 0.215388 -0.252791 0.011047 0.34855 

POLYGONS 501 1500
OFFSETS vtktypeint64
0 3 6 9 12 15 18 21 24 
27 30 33 36 39 42 45 48 51 
54 57 60 63 66 69 72 75 78 
81 84 87 90 93 96 99 102 105 
108 111 114 117 120 123 126 129 132 
135 138 141 144 147 150 153 156 159 
162 165 168 171 174 177 180 183 186 
189 192 195 198 201 204 207 210 213 
216 219 222 225 228 231 234 237 240 
243 246 249 252 255 258 261 264 267 
270 273 276 279 282 285 288 291 294 
297 300 303 306 309 312 315 318 321 
324 327 330 333 336 339 342 345 348 
351 354 357 360 363 366 369 372 375 
378 381 384 387 390 393 396 399 402 
405 408 411 414 417 420 423 426 429 
432 435 438 441 444 447 450 453 456 
459 462 465 468 471 474 477 480 483 
486 489 492 495 498 501 504 507 510 
513 516 519 522 525 528 531 534 537 
540 543 546 549 552 555 558 561 564 
567 570 573 576 579 582 585 588 591 
594 597 600 603 606 609 612 615 618 
621 624 627 630 633 636 639 642 645 
648 651 654 657 660 663 666 669 672 
675 678 681 684 687 690 693 696 699 
702 705 708 711 714 717 720 723 726 
729 732 735 738 741 744 747 750 753 
756 759 762 765 768 771 774 777 780 
783 786 789 792 795 798 801 804 807 
810 813 816 819 822 825 828 831 834 
837 840 843 846 849 852 855 858 861 
864 867 870 873 876 879 882 885 888 
891 894 897 900 903 906 909 912 915 
918 921 924 927 930 933 936 939 942 
945 948 951 954 957 960 963 966 969 
972 975 978 981 984 987 990 993 996 
999 1002 1005 1008 1011 1014 1017 1020 1023 
1026 1029 1032 1035 1038 1041 1044 1047 1050 
1053 1056 1059 1062 1065 1068 1071 1074 1077 
1080 1083 1086 1089 1092 1095 1098 1101 1104 
1107 1110 1113 1116 1119 1122 1125 1128 1131 
1134 1137 1140 1143 1146 1149 1152 1155 1158 
1161 1164 1167 1170 1173 1176 1179 1182 1185 
1188 1191 1194 1197 1200 1203 1206 1209 1212 
1215 1218 1221 1224 1227 1230 1233 1236 1239 
1242 1245 1248 1251 1254 1257 1260 1263 1266 
1269 1272 1275 1278 1281 1284 1287 1290 1293 
1296 1299 1302 1305 1308 1311 1314 1317 1320 
1323 1326 1329 1332 1335 1338 1341 1344 1347 
1350 1353 1356 1359 1362 1365 1368 1371 1374 
1377 1380 1383 1386 1389 1392 1395 1398 1401 
1404 1407 1410 1413 1416 1419 1422 1425 1428 
1431 1434 1437 1440 1443 1446 1449 1452 1455 
1458 1461 1464 1467 1470 1473 1476 1479 1482 
1485 1488 1491 1494 1497 1500 
CONNECTIVITY vtktypeint64
149 169 188 131 107 137 149 122 116 
107 125 137 164 122 149 140 137 157 
140 157 180 180 157 158 170 149 188 
158 192 180 182 196 213 192 182 213 
192 213 210 196 228 213 125 70 129 
129 122 164 125 129 166 129 164 170 
137 125 157 166 129 170 125 166 158 
157 125 158 164 149 170 170 182 166 
158 166 182 196 170 188 182 170 196 
192 158 182 143 130 173 100 93 132 
100 105 93 17 15 31 21 17 31 
17 13 15 14 21 11 7 14 11 
4 1 13 4 3 1 168 167 183 
168 142 167 142 143 167 132 142 168 
142 93 143 132 93 142 13 17 21 
14 13 21 4 13 14 7 4 14 
3 4 7 78 130 143 78 88 130 
109 100 132 29 104 103 105 78 93 
15 32 31 15 34 32 32 21 31 
10 21 32 13 1 15 10 11 21 
6 11 10 6 0 3 0 1 3 
167 191 187 167 187 183 185 159 190 
168 183 153 174 133 185 133 151 159 
133 159 185 167 143 173 153 132 168 
109 132 153 93 78 143 6 7 11 
3 7 6 38 68 53 45 71 63 
117 118 110 117 110 114 57 63 80 
57 45 63 72 45 67 45 57 67 
22 45 52 52 45 72 58 72 96 
26 52 58 68 26 58 75 60 61 
65 82 79 86 83 79 87 50 113 
50 85 113 67 57 80 67 80 84 
67 84 89 72 67 89 114 89 117 
72 89 96 114 96 89 96 114 92 
68 58 96 53 68 92 92 68 96 
113 94 115 115 94 118 117 115 118 
89 84 117 212 207 219 71 23 92 
71 92 106 90 71 106 106 110 94 
94 90 106 85 90 94 85 94 113 
79 82 86 51 102 88 38 26 68 
53 39 38 53 20 39 92 23 53 
22 23 71 45 22 71 63 71 90 
63 90 85 91 30 86 27 30 24 
65 42 82 25 42 65 48 51 88 
48 33 35 60 46 61 46 33 48 
29 42 25 62 30 91 24 30 62 
29 24 62 19 26 34 15 19 34 
20 18 39 25 24 29 15 9 19 
18 10 39 18 2 10 9 12 19 
9 5 12 5 2 18 1 5 9 
1 0 5 5 0 2 187 231 234 
234 230 187 203 206 235 183 187 230 
231 191 209 191 231 187 207 211 230 
177 200 204 177 184 200 189 206 203 
191 162 209 162 198 209 181 189 197 
189 178 206 211 183 230 50 63 85 
50 59 63 55 50 87 30 40 86 
30 28 40 30 27 28 37 25 65 
62 151 104 136 151 62 88 111 130 
0 6 2 2 6 10 1 9 15 
39 10 32 46 105 100 46 48 105 
105 48 78 29 62 104 46 109 61 
109 46 100 61 109 111 78 48 88 
29 103 42 82 42 103 82 103 121 
82 121 126 91 123 134 123 126 134 
62 91 136 136 91 134 126 121 138 
126 138 145 145 138 178 134 126 145 
134 145 155 155 145 178 155 178 181 
162 171 198 189 181 178 155 181 184 
171 211 207 47 33 60 33 46 60 
16 52 26 8 23 22 52 8 22 
28 27 37 27 25 37 12 26 19 
8 52 16 12 16 26 16 12 8 
241 242 251 251 242 246 234 244 247 
234 231 244 242 237 246 200 197 237 
197 226 237 189 203 220 218 189 220 
226 189 218 209 198 212 212 198 207 
110 92 114 106 92 110 118 94 110 
48 35 51 23 8 53 120 124 144 
120 144 146 141 120 146 141 119 120 
141 135 119 81 131 112 74 131 81 
95 108 112 120 83 124 97 43 95 
56 73 124 28 73 56 28 64 73 
73 64 99 64 135 99 64 54 135 
41 60 69 51 41 69 51 36 41 
221 227 248 249 250 244 221 217 227 
215 202 224 202 233 224 215 219 250 
214 229 222 222 227 217 217 195 222 
81 112 108 135 54 119 233 249 245 
107 70 125 70 101 129 101 122 129 
122 76 116 209 212 231 59 50 55 
58 52 72 102 69 75 65 79 119 
84 80 98 219 207 240 224 212 219 
231 212 245 227 218 220 218 222 226 
226 232 237 240 247 250 231 245 244 
220 248 227 220 241 248 248 241 251 
246 237 232 33 47 35 54 65 119 
54 37 65 40 56 83 28 56 40 
44 55 87 63 59 80 59 55 66 
80 59 66 69 60 75 102 51 69 
79 83 119 40 83 86 87 113 108 
95 87 108 98 81 115 80 66 98 
98 66 81 98 115 117 84 98 117 
81 108 115 101 76 122 236 213 228 
210 213 236 205 192 210 196 225 228 
188 225 196 188 199 225 238 193 216 
194 193 238 193 223 216 163 201 223 
180 192 205 188 195 199 169 195 188 
163 223 193 175 201 163 176 180 205 
195 176 205 169 176 195 193 161 163 
161 193 194 165 175 163 140 180 176 
149 176 169 149 140 176 165 163 161 
144 194 179 139 161 194 165 152 175 
175 152 156 116 140 149 154 165 161 
154 161 139 144 139 194 147 152 165 
154 147 165 127 137 140 116 127 140 
127 131 137 141 146 156 152 141 156 
135 141 152 147 135 152 97 112 127 
116 97 127 97 95 112 124 139 144 
124 128 139 128 99 154 154 99 147 
74 49 70 70 107 74 76 43 97 
73 99 128 99 135 147 49 77 70 
49 44 77 44 43 77 77 43 76 
47 60 41 246 236 243 238 216 249 
239 250 249 216 239 249 232 236 246 
232 210 236 229 210 232 225 221 243 
225 199 221 208 238 233 233 202 208 
239 215 250 201 215 239 214 205 229 
199 217 221 199 195 217 124 73 128 
243 221 248 233 238 249 195 214 222 
128 154 139 112 131 127 121 103 133 
151 136 148 151 148 159 150 109 153 
172 150 153 104 151 133 103 104 133 
130 111 150 160 130 150 111 109 150 
130 160 173 121 133 138 138 133 174 
136 134 148 178 138 174 148 134 155 
160 150 172 171 160 172 162 160 171 
173 160 162 159 148 177 148 155 184 
172 153 211 171 172 211 162 191 173 
173 191 167 174 206 178 206 174 185 
159 177 190 177 148 184 211 153 183 
185 190 235 185 235 206 177 204 190 
235 190 204 77 101 70 77 76 101 
76 97 116 36 47 41 236 228 243 
228 225 243 216 223 239 223 201 239 
229 205 210 194 238 208 195 205 214 
186 202 215 186 179 202 179 194 208 
186 215 201 175 186 201 186 156 179 
175 156 186 156 144 179 156 146 144 
74 107 131 202 179 208 8 20 53 
25 27 24 8 18 20 12 18 8 
12 5 18 235 242 241 242 204 237 
204 200 237 204 242 235 235 241 220 
203 235 220 247 230 234 240 230 247 
240 207 230 197 189 226 184 197 200 
198 171 207 123 86 126 91 86 123 
86 82 126 102 61 111 88 102 111 
75 61 102 34 38 39 39 32 34 
26 38 34 184 181 197 66 49 81 
49 74 81 108 113 115 222 218 227 
55 44 66 215 224 219 212 224 245 
245 224 233 222 229 232 222 232 226 
250 219 240 250 247 244 245 249 244 
243 248 251 47 36 35 35 36 51 
64 37 54 28 37 64 43 87 95 
43 44 87 66 44 49 119 83 120 
56 124 83 243 251 246 
POINT_DATA 252
SCALARS k float
LOOKUP_TABLE default
1.73163 0.250774 -0.137983 -0.30396 0.793435 0.57183 0.00814426 0.694458 -0.742302 
0.160402 -0.147837 0.104673 -0.308299 -0.473391 2.18463 0.297171 0.386712 1.31331 
-0.357849 0.131863 0.0328773 -0.462612 -0.304887 -0.168166 0.323189 0.214428 0.233613 
0.0851102 0.16438 0.339883 0.294106 1.48975 -0.56039 0.0675288 0.412685 -0.031698 
1.00184 0.34939 0.198774 -0.484234 -0.0490749 3.96328 0.0315624 0.197822 0.174193 
-0.345557 0.423505 0.722364 0.536353 0.148995 0.314213 -0.131727 0.187053 -0.768823 
0.201003 -0.109459 -0.199306 0.00460911 0.121061 0.268332 0.101875 -0.306654 0.229982 
-0.112575 0.359944 0.0546371 -0.986316 -0.306448 0.218652 0.0974296 0.510183 0.0368652 
-0.0327922 0.324468 -0.0328841 0.0125736 0.361992 0.210433 0.0967717 -0.252283 -0.431027 
-0.459423 -0.800473 -0.323576 -0.0119097 0.224659 -0.547514 0.371563 -0.132748 -0.0674419 
0.226353 -0.0623307 -0.161685 0.78562 0.0440753 0.113757 0.11228 -0.0840069 -0.302024 
0.200086 0.1244 0.234571 -0.384663 0.177787 0.331285 0.195682 -0.0502653 -0.112952 
0.263005 -0.045992 0.434353 -0.561938 -0.783608 0.353428 0.135915 -0.145565 -0.223025 
-0.00691104 0.247428 -0.536407 -0.20242 -0.102789 0.288381 -0.111345 -0.257642 -0.094698 
-0.441612 -0.208062 0.0493352 0.350009 -0.299007 -0.284141 0.570295 0.395569 -0.29984 
0.0730493 0.259845 -0.162216 -0.0885472 -0.181764 -0.719372 -0.14799 0.359972 -0.0957574 
-0.321996 -0.37628 -0.154135 0.287654 -0.00635831 -0.41191 -0.766523 0.216222 0.215261 
0.109013 0.186888 -0.298203 -0.0515687 -0.116285 0.0162007 0.271117 -0.613836 0.226788 
-0.118167 0.401088 0.379894 0.308532 0.515554 0.389945 0.650772 -0.461187 0.253209 
-0.444627 -0.361279 -0.0754229 0.152211 0.0817721 -0.465581 0.160234 -0.509715 -0.486224 
-0.212288 -0.130683 0.461951 0.273918 -0.155238 0.35209 -0.725989 0.34846 0.159002 
-0.599539 0.163795 0.0548995 -0.00177503 0.434201 -0.151187 0.123369 0.325754 -0.249766 
-0.267957 0.285096 0.008214 0.13222 -0.654132 -0.0414488 0.234933 -0.353797 0.101243 
-0.0198746 -0.178152 -0.0826738 -0.361744 -0.105917 -0.399092 0.090352 0.0240873 -0.396873 
0.534969 0.0719668 -0.234667 -0.492492 0.084033 0.0931708 -0.832224 0.146097 -0.694464 
0.344894 -0.245459 -0.653056 0.168477 -0.054332 0.293936 -0.113456 -0.0835319 -0.185311 
0.185456 0.391143 -0.10954 -0.0521298 0.0596265 0.414073 0.12163 0.272855 0.236243 
0.143566 0.665545 0.116154 0.807223 0.11404 0.300939 0.264582 0.362958 0.235734 

FIELD FieldData 7
h 1 252 float
7.67869 4.3734 -2.41792 4.08274 -1.21112 4.55974 -2.09056 0.175949 -0.0288031 
6.90653 -3.39644 4.07768 3.65478 -0.0241701 -0.141244 4.12247 3.6284 11.4685 
-2.53926 3.90798 -1.84627 -2.04788 0.873707 -4.32411 15.0019 5.42289 5.8101 
8.95839 1.76957 7.67118 0.382698 2.95643 -3.91408 4.59229 4.82918 1.2649 
-0.174887 9.14546 3.95116 -1.76605 -1.98859 1.5678 2.28257 2.48621 0.775311 
-0.586249 0.856303 4.44251 0.0377546 -2.07662 1.63937 -1.60295 1.27459 0.506986 
2.72357 -0.341677 -1.87094 1.42393 3.56515 1.33537 0.0514385 0.304591 5.24385 
1.22998 16.3931 1.76413 0.259655 0.16819 4.6774 8.40371 -0.655101 1.19356 
2.27129 1.14047 -1.76092 -0.446096 3.47393 1.75319 -0.487783 -8.10832 0.905999 
-0.794922 0.37329 -8.73456 0.85903 3.98677 -5.90008 3.85701 -1.67796 1.11742 
2.46818 -2.37797 0.742621 5.36996 1.97047 1.82162 4.82605 1.98088 -2.86246 
11.2787 1.20662 1.87256 0.449077 2.4681 13.4175 11.8566 1.30778 -2.78443 
-1.48109 0.189703 1.82506 -2.40139 -2.11519 1.8899 2.57574 -1.57878 1.19845 
-0.632921 -0.850926 0.242189 -3.36052 1.049 3.48469 -5.31108 -3.16802 -1.39554 
-0.438213 -0.291314 0.749407 1.50719 -1.49082 -1.79712 1.94622 3.69278 -3.7491 
2.31031 -0.330882 -4.3689 0.889096 -1.55102 -2.30257 0.679947 15.6527 -0.503742 
-4.41039 -3.14231 2.86792 8.62876 -0.266642 1.27258 -2.23728 7.62371 2.26375 
0.11546 6.63159 -4.10026 0.297725 -4.60858 -1.66574 9.30398 -2.23475 1.84903 
-0.604061 22.6191 5.18322 11.6526 1.35276 -0.211201 5.20947 0.447392 7.97536 
-0.989502 -0.712164 -0.739667 1.91466 1.50506 -8.15023 1.05324 -1.24642 -9.42978 
-4.413 -3.80826 2.82786 5.90573 -3.17997 4.27359 0.102487 0.202627 1.31419 
-2.79242 11.8835 -0.279765 -1.77684 0.0938343 -1.85954 -2.85158 9.86641 -2.57647 
-0.249738 2.00893 -1.53269 1.28513 -4.98669 2.10648 1.25225 -3.10569 1.60174 
0.544492 -2.38849 -0.765403 -1.14686 0.633777 -1.0813 1.3684 -3.14539 0.601224 
10.7654 0.947318 -4.99493 0.534183 1.59131 2.72403 -1.42844 14.2884 -1.67841 
5.54441 -4.92079 1.1382 11.9796 -4.40764 2.52395 -0.921294 -2.55789 -1.20062 
26.234 6.44171 1.03519 -1.26347 -1.02508 2.79875 0.893004 6.25949 2.68277 
9.53183 0.85955 -1.37203 2.59095 3.88196 2.94768 0.735973 1.56677 12.644 

kmin 1 252 float
12.5749 6.27678 2.79953 10.1163 -0.692398 6.4653 2.67529 2.3017 2.64862 
8.33736 -2.45623 10.2836 6.21454 0.813475 0.616714 7.15868 5.99047 15.5569 
4.31816 7.01195 3.46598 -0.637923 2.70166 -0.655509 25.5035 7.94498 8.98378 
14.0445 2.26183 12.0247 1.09439 7.29673 -0.783592 8.73752 5.58073 1.83061 
0.149921 14.5157 5.90824 2.1432 -1.35536 4.65744 2.84546 3.05562 2.71621 
0.00231815 1.00552 8.04723 0.651791 0.304911 3.24404 -0.0744187 4.08902 2.91686 
3.43207 2.22252 -1.45275 3.73275 5.94023 3.39112 0.947391 0.634936 7.27592 
2.95746 28.6435 2.15411 2.96735 1.38819 7.57916 19.4961 -0.170932 4.18467 
4.73408 1.57449 -1.0452 0.0463455 4.18588 2.61472 -0.0589938 -4.21378 2.99884 
0.971273 0.831036 -4.03792 2.64745 6.07241 -3.39979 5.78145 -0.70166 3.34072 
3.43358 -1.87541 1.11492 8.0752 2.63126 2.86689 8.46264 3.01948 -1.61576 
18.1563 1.46918 3.00046 8.02533 3.20762 21.4614 23.7099 2.22409 -2.38159 
0.353449 0.44071 2.64869 -1.49866 0.0368343 2.87136 4.58994 0.0896726 1.89347 
0.579218 1.39011 0.586257 -0.824811 1.63558 4.24157 -3.10842 -1.8198 -0.948481 
5.49344 3.59793 1.25045 3.11806 -0.991927 -0.988664 2.18086 4.53822 -2.33509 
3.04419 0.0290501 -3.20327 1.41344 -0.858995 3.02854 1.2531 25.8944 -0.286316 
-3.38652 -1.34128 9.75647 14.219 0.00851301 1.68698 -1.62882 11.7699 2.97589 
0.244686 10.692 -2.67644 0.862523 -3.05751 -1.27945 14.5251 -2.2131 3.16689 
-0.482255 41.1358 6.6618 19.2864 2.18622 -0.0446502 7.36877 1.29946 11.2786 
-0.773425 -0.601334 -0.537366 2.1117 2.1194 -4.84132 1.37975 -0.647922 -4.07893 
-2.23473 -3.05047 3.29924 9.73642 -2.26605 5.69847 0.635753 0.427947 2.25871 
-1.6189 19.7733 0.0500552 -1.12226 0.545612 -0.511131 0.204065 16.2731 -1.98853 
2.11675 2.9853 -0.73435 1.72019 -3.62463 2.58552 1.95191 -1.88713 1.65505 
0.821179 -1.29596 -0.492924 -0.129517 0.786282 -0.662348 1.86939 -2.64579 1.01623 
17.3538 1.87236 -2.89247 0.817157 1.88159 4.64228 1.6608 23.6899 -0.91813 
8.98639 -3.43368 1.83961 20.8995 -1.92951 3.24277 -0.588973 -0.646077 -0.485705 
48.7021 9.79547 2.41244 -0.485333 -0.633691 3.84232 1.31778 9.61438 3.34106 
15.493 1.14125 -0.743452 3.99084 6.40073 4.69454 1.37713 2.23187 20.6907 

kmax 1 252 float
2.78251 2.47001 -7.63538 -1.95086 -1.72984 2.65418 -6.85641 -1.9498 -2.70622 
5.47571 -4.33665 -2.12821 1.09503 -0.861815 -0.899201 1.08626 1.26633 7.37995 
-9.39667 0.804013 -7.15852 -3.45783 -0.954251 -7.99271 4.50032 2.90079 2.63642 
3.87232 1.27731 3.31764 -0.328993 -1.38386 -7.04458 0.447062 4.07764 0.699183 
-0.499695 3.77525 1.99408 -5.67531 -2.62181 -1.52184 1.71968 1.91679 -1.16559 
-1.17482 0.707086 0.837786 -0.576282 -4.45815 0.0346895 -3.13149 -1.53985 -1.90289 
2.01507 -2.90588 -2.28913 -0.884891 1.19007 -0.720381 -0.844514 -0.0257542 3.21178 
-0.497499 4.1426 1.37415 -2.44804 -1.05181 1.77565 -2.68869 -1.13927 -1.79755 
-0.1915 0.706453 -2.47663 -0.938538 2.76198 0.891657 -0.916573 -12.0029 -1.18684 
-2.56112 -0.0844563 -13.4312 -0.929389 1.90112 -8.40037 1.93256 -2.65427 -1.10589 
1.50278 -2.88052 0.370327 2.66471 1.30967 0.776357 1.18946 0.942277 -4.10916 
4.40098 0.944066 0.744655 -7.12717 1.72858 5.37367 0.00332335 0.391461 -3.18727 
-3.31562 -0.0613034 1.00143 -3.30412 -4.26722 0.908437 0.56154 -3.24723 0.503441 
-1.84506 -3.09196 -0.101878 -5.89623 0.462427 2.72781 -7.51375 -4.51625 -1.84259 
-6.36987 -4.18056 0.248365 -0.103685 -1.9897 -2.60558 1.71158 2.84734 -5.16311 
1.57643 -0.690813 -5.53453 0.364751 -2.24304 -7.63369 0.106798 5.41098 -0.721168 
-5.43425 -4.94333 -4.02063 3.03855 -0.541797 0.858189 -2.84573 3.47747 1.55162 
-0.0137649 2.57121 -5.52408 -0.267073 -6.15965 -2.05202 4.08285 -2.2564 0.531178 
-0.725866 4.10231 3.70464 4.01873 0.519292 -0.377752 3.05017 -0.404681 4.67217 
-1.20558 -0.822995 -0.941969 1.71762 0.890726 -11.4591 0.726721 -1.84492 -14.7806 
-6.59127 -4.56605 2.35648 2.07503 -4.09388 2.84871 -0.430779 -0.0226936 0.369661 
-3.96594 3.99378 -0.609586 -2.43142 -0.357943 -3.20795 -5.90723 3.45971 -3.16441 
-2.61623 1.03256 -2.33103 0.850069 -6.34875 1.62744 0.552595 -4.32425 1.54842 
0.267805 -3.48103 -1.03788 -2.1642 0.481271 -1.50026 0.86741 -3.64499 0.186219 
4.177 0.0222729 -7.09739 0.25121 1.30104 0.805768 -4.51768 4.88698 -2.43868 
2.10244 -6.40789 0.436797 3.0596 -6.88577 1.80512 -1.25361 -4.46971 -1.91553 
3.76589 3.08795 -0.342053 -2.04161 -1.41646 1.75518 0.468232 2.9046 2.02449 
3.57063 0.577852 -2.0006 1.19107 1.3632 1.20082 0.0948114 0.901666 4.5974 

hks 16 252 double
0.89019975652 0.89894842462 0.90783434849 0.91684734623 0.92597730359 0.93521376658 0.94454551333 0.95396015078 0.96344378047 
0.9729807714 0.98255366761 0.99214324448 1.0017287132 1.0112880579 1.0207984784 1.0302369014 0.86188984403 0.87440182906 
0.88724357826 0.90033819531 0.9136054534 0.92696393372 0.94033324563 0.95363620331 0.96680083312 0.9797620976 0.99246324472 
1.0048567215 1.0169046258 1.0285787059 1.0398599465 1.0507378072 0.74862775201 0.75661996005 0.76513058921 0.7741412677 
0.78362721653 0.79355757432 0.80389594269 0.81460113324 0.8256280821 0.83692888601 0.84845390576 0.8601528802 0.8719759962 
0.88387486656 0.89580337774 0.90771838088 1.0253722276 1.0367894402 1.0477515806 1.0582462863 1.0682698048 1.0778265526 
1.0869283633 1.0955934685 1.1038452736 1.1117110042 1.1192203054 1.1264038742 1.1332921983 1.1399144591 1.1462976409 
1.1524658666 1.0630240751 1.0761725757 1.0889258031 1.1012198146 1.1129980358 1.1242132469 1.1348292026 1.1448217605 
1.1541794286 1.1629032937 1.1710063406 1.1785122238 1.1854535939 1.1918701099 1.1978062823 1.2033092926 0.6500428801 
0.66009703745 0.67063607749 0.68163996436 0.69308122057 0.70492547626 0.71713233434 0.7296564989 0.74244909462 0.75545909176 
0.76863474733 0.78192497719 0.7952805853 0.8086552931 0.8220065319 0.83529598151 0.95189747389 0.96216110482 0.97224283621 
0.98213303411 0.99182610858 1.0013202461 1.010616982 1.0197206366 1.0286376482 1.0373758467 1.0459437147 1.0543496842 
1.0626015109 1.0707057622 1.0786674405 1.0864897549 1.0816015709 1.0929205083 1.1037695919 1.1141081788 1.1239060248 
1.133144109 1.1418149742 1.1499225489 1.1574814559 1.1645158511 1.1710578752 1.1771458228 1.1828221571 1.1881314949 
1.1931186851 1.1978270821 0.5296901428 0.53211568594 0.53447452922 0.53677307288 0.53902151201 0.54123435599 0.54343076124 
0.54563463092 0.54787445497 0.55018288657 0.55259607388 0.55515278642 0.55789338998 0.5608587333 0.56408901121 0.5676226651 
0.68735561105 0.69213659554 0.69772892693 0.70412232205 0.71129762013 0.71922633151 0.72787062985 0.73718382833 0.74711133139 
0.75759200573 0.76855987296 0.7799459979 0.79168043334 0.80369408527 0.81592037949 0.82829663861 0.7087864461 0.71965153604 
0.73113478231 0.74317685158 0.7557105346 0.76866235005 0.78195447023 0.79550686614 0.80923954583 0.82307474816 0.83693895695 
0.8507646169 0.86449146087 0.87806739334 0.89144891336 0.90460109721 0.97107689442 0.98428462922 0.99732571228 1.0101318205 
1.0226398824 1.0347939793 1.0465469415 1.0578615328 1.0687111469 1.0790799783 1.088962674 1.0983635107 1.1072951788 
1.1157772787 1.1238346453 1.1314956204 0.54899978277 0.55412016777 0.55946539875 0.56503941936 0.57084759096 0.57689673572 
0.58319505823 0.58975194338 0.59657763918 0.6036828417 0.61107820754 0.61877382297 0.62677866107 0.63510005623 0.64374322192 
0.65271083204 0.97693076162 0.9912729003 1.0055423808 1.0196339861 1.0334509708 1.0469073605 1.0599297582 1.0724585823 
1.0844486959 1.0958694278 1.1067040194 1.1169485669 1.126610554 1.1357070856 1.1442629427 1.1523085746 1.0472016721 
1.0616718393 1.075730972 1.0892971187 1.1022975251 1.1146711067 1.1263704201 1.1373629923 1.1476319162 1.1571756821 
1.166007277 1.174152638 1.1816485952 1.188540466 1.1948794761 1.2007201769 0.76280011011 0.77328549634 0.78397738028 
0.79486113722 0.80592311794 0.81714980595 0.82852701153 0.84003917748 0.85166885414 0.86339638025 0.87519978335 0.88705489222 
0.89893563647 0.9108144954 0.92266305096 0.93445259728 0.58185373807 0.58174883778 0.58177903723 0.58191937086 0.58215148519 
0.58246508586 0.58285893147 0.58334130385 0.58392992458 0.58465133036 0.58553976058 0.5866356446 0.58798380063 0.58963147094 
0.59162631832 0.59401449957 0.99794910907 1.0031626622 1.0085265412 1.0140653902 1.0198008452 1.0257501461 1.0319249292 
1.0383302914 1.0449641961 1.0518172654 1.0588729726 1.0661082141 1.0734942146 1.0809976902 1.0885821839 1.0962094758 
0.5443746952 0.55083525879 0.55780038226 0.56526820428 0.57323051005 0.581673152 0.59057669905 0.59991726692 0.6096674698 
0.61979742747 0.63027576157 0.64107052062 0.65214998447 0.66348331255 0.67504101673 0.68679525467 0.7290333164 0.72276342465 
0.71735620405 0.71286284588 0.70932772306 0.70678729295 0.70526906691 0.70479072056 0.70535941859 0.70697141892 0.70961200391 
0.71325576238 0.71786721916 0.72340178221 0.72980695346 0.73702373192 0.6032265955 0.59812948672 0.59385709553 0.5904150322 
0.58780289451 0.586015002 0.58504115919 0.58486741158 0.58547676498 0.58684984532 0.58896548245 0.59180120742 0.59533365722 
0.59953888487 0.60439257617 0.60987017693 0.90626773699 0.92043300088 0.9344362673 0.94823490363 0.96178913146 0.97506265763 
0.9880232441 1.0006431853 1.0128996643 1.0247749651 1.0362565272 1.0473368383 1.0580131725 1.0682871894 1.0781644189 
1.0876536585 0.57057819122 0.56915652963 0.5678851904 0.56675981818 0.56577116686 0.56490615896 0.56414916925 0.56348344691 
0.56289258186 0.56236192098 0.56187984686 0.56143884655 0.56103631617 0.5606750694 0.56036353956 0.5601156856 0.64494876167 
0.63679270962 0.62918635837 0.62213353222 0.61563096743 0.60966905346 0.60423278179 0.5993028677 0.59485699994 0.59087116363 
0.58732097576 0.58418296905 0.58143576224 0.57906106062 0.57704444143 0.57537589222 0.65446237434 0.65121512625 0.64772852987 
0.64401729867 0.64009816128 0.63598941529 0.63171045105 0.6272812664 0.62272199295 0.61805245298 0.61329176344 0.60845799923 
0.60356792345 0.59863678729 0.59367819798 0.58870404919 0.66328594505 0.66049449029 0.65734605936 0.65386085091 0.65006272883 
0.64597867295 0.64163812005 0.6370722187 0.63231302955 0.62739270906 0.62234271725 0.61719308918 0.61197180476 0.60670428347 