# vtk DataFile Version 5.1
vtk output
ASCII
DATASET POLYDATA
POINTS 252 float
0.854197 -0.006119 -0.053329 0.796712 -0.024497 -0.003832 0.815931 -0.006081 -0.055894 
0.900558 -0.065079 -0.058469 0.828229 -0.063086 0.006772 0.869245 -0.077797 -0.068017 
0.83799 -0.087205 -0.071305 0.854795 -0.163697 -0.08579 0.880729 -0.102028 -0.036803 
0.778758 -0.074594 -0.035702 0.709563 0.009444 -0.068978 0.893955 -0.180499 -0.092 
0.736385 -0.017628 -0.020785 0.604229 0.056446 -0.092452 0.664662 0.031265 -0.1004 
0.860594 -0.205821 -0.062848 0.813729 -0.173136 -0.053016 0.757486 -0.034839 -0.048486 
0.793975 -0.126638 -0.05353 0.771525 -0.071265 0.027371 0.588143 0.065167 -0.115184 
0.713679 -0.028161 -0.07482 0.54022 0.130122 -0.071128 0.837281 -0.153777 -0.010751 
0.665254 -0.018575 -0.049089 0.551659 0.076645 -0.063475 0.525313 0.080487 -0.11595 
0.820491 -0.185542 -0.021326 0.599471 0.017485 -0.117331 0.676554 -0.064689 -0.062604 
0.380588 0.205837 -0.072121 0.440323 0.207919 -0.037158 0.617069 -0.057191 -0.057623 
0.609965 -0.047409 -0.044953 0.775079 -0.13 0.032968 0.467662 0.162513 -0.087201 
0.393772 0.237758 -0.003085 0.581924 0.01578 -0.063959 0.758441 -0.191286 0.016176 
0.661523 -0.117309 -0.078074 0.510754 0.065791 -0.056104 0.450271 0.189668 -0.014831 
0.696042 -0.094711 -0.017851 0.723801 -0.128846 0.011642 0.732265 -0.095678 0.032855 
0.36659 0.26916 -0.034679 0.658267 -0.078761 -0.019046 0.325722 0.285681 -0.013583 
0.546111 0.004629 -0.095716 0.753351 -0.166412 -0.006573 0.726394 -0.163102 0.031886 
0.377789 0.213987 0.006156 0.45513 0.096746 -0.059316 0.467661 0.091668 -0.084953 
0.613697 -0.141184 -0.062088 0.256966 0.345255 -8e-05 0.303642 0.289759 -0.054316 
0.430024 0.139442 -0.082466 0.304414 0.237277 -0.067814 0.425305 0.152614 -0.025976 
0.239599 0.28244 -0.052651 0.30643 0.272651 0.014783 0.272907 0.325348 0.029962 
0.365678 0.16498 -0.057499 0.242536 0.313583 0.039939 0.324071 0.213624 -0.018742 
0.636092 -0.137505 -0.033136 0.261633 0.239249 -0.040468 0.215811 0.350515 -0.022238 
0.182841 0.369283 0.071602 0.150966 0.399011 0.031928 0.261839 0.266706 0.005517 
0.199585 0.281686 -0.01068 0.213477 0.368499 0.039273 0.16863 0.329756 0.056632 
0.178623 0.313981 -0.02439 0.612192 -0.166492 -0.038282 0.123611 0.415799 0.084077 
0.089745 0.421947 0.0237 0.128181 0.379348 0.086159 0.094871 0.389241 0.011955 
0.544531 -0.165393 -0.024404 0.052053 0.450072 0.108087 0.065317 0.457814 0.061649 
0.536971 -0.181532 0.040479 0.584488 -0.145066 -0.021754 0.001993 0.487209 0.086965 
0.081537 0.353988 0.014938 -0.030786 0.486807 0.114416 -0.008831 0.433282 0.026132 
0.113519 0.344489 0.064228 0.130798 0.313299 0.018535 0.05309 0.4024 0.092167 
0.457128 -0.204114 0.026473 0.041515 0.37094 0.054362 0.469441 -0.181661 0.018136 
-0.074514 0.462578 0.027452 -0.038609 0.490161 0.04779 -0.029467 0.414701 0.039741 
-0.016497 0.415148 0.080872 0.519098 -0.201607 0.008457 -0.088629 0.511789 0.08267 
-0.147254 0.505812 0.111722 -0.108492 0.439568 0.080375 -0.061148 0.471108 0.12704 
0.483226 -0.180048 0.053384 0.427004 -0.24377 0.077066 -0.145727 0.517934 0.053265 
-0.13094 0.461999 0.020524 0.517691 -0.207182 0.040894 -0.151425 0.485731 0.124138 
-0.124987 0.456187 0.106408 0.384064 -0.22538 0.048535 -0.256546 0.514256 0.049391 
0.411534 -0.189759 0.052452 0.453871 -0.214149 0.105554 -0.233776 0.441166 0.001001 
0.285018 -0.221104 0.039316 -0.142568 0.442042 0.043615 -0.24177 0.488707 -0.003528 
0.389915 -0.192508 0.083739 -0.251661 0.466164 0.089098 -0.239088 0.439871 0.055983 
-0.254396 0.485611 0.092938 -0.310353 0.481115 0.015725 0.388275 -0.228228 0.121415 
0.306716 -0.19787 0.060212 0.295378 -0.272374 0.087259 -0.248905 0.455066 -0.017793 
0.278394 -0.211375 0.080105 0.301683 -0.260685 0.052884 -0.336852 0.368984 -0.00654 
-0.327403 0.456394 0.077229 -0.294802 0.432778 0.081838 0.291601 -0.246132 0.113995 
-0.319671 0.411464 -0.015781 0.263928 -0.274597 0.10268 -0.277477 0.413876 0.043771 
0.208812 -0.254508 0.005949 -0.329548 0.358424 0.026728 -0.394865 0.401051 0.065449 
-0.383884 0.414385 0.021658 0.221434 -0.307089 0.003553 -0.355936 0.405813 0.095627 
0.200328 -0.2541 0.037568 0.162579 -0.269307 0.006363 -0.422604 0.384123 0.010464 
0.216795 -0.269523 0.071354 0.165395 -0.285644 0.037707 -0.424302 0.320031 0.066104 
0.178543 -0.329993 0.049775 0.177208 -0.305899 -0.013926 -0.353932 0.354894 0.068361 
-0.443243 0.320388 -0.037153 -0.388954 0.33776 -0.028999 -0.490037 0.315832 -0.008852 
-0.437658 0.349559 0.063427 -0.419165 0.287098 0.02244 0.188919 -0.347728 0.022618 
0.093237 -0.356476 -0.02488 -0.417335 0.283875 -0.029533 0.09897 -0.311901 -0.011651 
0.077092 -0.356891 0.0388 0.100152 -0.389285 0.028205 0.113648 -0.375893 -0.003521 
0.071239 -0.310498 0.016738 -0.469631 0.239319 -0.070088 -0.478323 0.20396 -0.004237 
-0.487722 0.245339 0.038609 0.021016 -0.353438 -0.01413 -0.517891 0.217991 -0.073537 
-0.565456 0.198145 -0.050701 -0.486624 0.186939 -0.070739 -0.51883 0.257617 0.014534 
-0.024554 -0.366132 0.046834 -0.529039 0.124065 -0.029512 -0.040634 -0.350984 0.012702 
-0.537132 0.151217 0.002485 -0.00872 -0.400441 0.064715 -0.04055 -0.382619 -0.002452 
-0.065206 -0.414017 0.101957 -0.06398 -0.430591 0.057682 -0.53577 0.151224 -0.094685 
-0.152917 -0.38694 0.054613 -0.566769 0.146922 0.001216 -0.114374 -0.376677 0.110012 
-0.534428 0.101743 -0.098982 -0.015613 -0.412739 0.00273 -0.577913 0.050677 -0.124909 
-0.104044 -0.413125 0.042073 -0.544987 0.07088 -0.083287 -0.605341 0.106729 -0.098979 
-0.585177 0.0575 -0.039568 -0.602913 0.12729 -0.037198 -0.149485 -0.391707 0.147028 
-0.151823 -0.367405 0.083428 -0.567699 0.018279 -0.11965 -0.628782 0.080557 -0.080736 
-0.597179 -0.034568 -0.137786 -0.633349 0.05143 -0.044316 -0.161063 -0.420852 0.081523 
-0.579235 -0.03626 -0.10651 -0.261567 -0.420801 0.119941 -0.273528 -0.363079 0.082815 
-0.154645 -0.423644 0.124175 -0.614825 -0.024984 -0.06132 -0.631474 -0.020344 -0.135186 
-0.246788 -0.355073 0.128455 -0.654171 -0.013212 -0.056945 -0.654745 0.000494 -0.107492 
-0.262097 -0.396956 0.082063 -0.589648 -0.129553 -0.123652 -0.669379 -0.10253 -0.069323 
-0.259995 -0.37143 0.163449 -0.609076 -0.184719 -0.078972 -0.611192 -0.137389 -0.144802 
-0.271706 -0.394671 0.16214 -0.606893 -0.194923 -0.145922 -0.408297 -0.367446 0.067946 
-0.366297 -0.365366 0.119324 -0.365928 -0.415147 0.065553 -0.672941 -0.102662 -0.114884 
-0.563383 -0.261103 -0.107014 -0.632268 -0.117428 -0.066913 -0.660881 -0.138769 -0.139472 
-0.390763 -0.417852 0.122243 -0.377475 -0.387286 0.038291 -0.646779 -0.19766 -0.062224 
-0.587331 -0.275843 -0.131933 -0.607074 -0.274353 -0.049534 -0.456964 -0.382146 -0.018612 
-0.534088 -0.330082 -0.060932 -0.543915 -0.326626 -0.086338 -0.380711 -0.431098 0.088163 
-0.489479 -0.394391 -0.049325 -0.666588 -0.195799 -0.093489 -0.504177 -0.372497 0.01717 
-0.431803 -0.375279 0.031976 -0.5761 -0.318823 -0.028745 -0.404936 -0.38719 0.13035 
-0.436183 -0.422472 -0.004077 -0.50998 -0.424752 -0.032375 -0.465657 -0.388947 0.072055 
-0.643501 -0.266683 -0.11802 -0.578182 -0.346568 -0.094564 -0.45925 -0.446365 0.036128 
-0.486551 -0.419902 0.063003 -0.597852 -0.374167 -0.06602 -0.641349 -0.296793 -0.068947 
-0.525497 -0.42511 0.020976 -0.601248 -0.340661 -0.011349 -0.606718 -0.364222 -0.026358 

POLYGONS 501 1500
OFFSETS vtktypeint64
0 3 6 9 12 15 18 21 24 
27 30 33 36 39 42 45 48 51 
54 57 60 63 66 69 72 75 78 
81 84 87 90 93 96 99 102 105 
108 111 114 117 120 123 126 129 132 
135 138 141 144 147 150 153 156 159 
162 165 168 171 174 177 180 183 186 
189 192 195 198 201 204 207 210 213 
216 219 222 225 228 231 234 237 240 
243 246 249 252 255 258 261 264 267 
270 273 276 279 282 285 288 291 294 
297 300 303 306 309 312 315 318 321 
324 327 330 333 336 339 342 345 348 
351 354 357 360 363 366 369 372 375 
378 381 384 387 390 393 396 399 402 
405 408 411 414 417 420 423 426 429 
432 435 438 441 444 447 450 453 456 
459 462 465 468 471 474 477 480 483 
486 489 492 495 498 501 504 507 510 
513 516 519 522 525 528 531 534 537 
540 543 546 549 552 555 558 561 564 
567 570 573 576 579 582 585 588 591 
594 597 600 603 606 609 612 615 618 
621 624 627 630 633 636 639 642 645 
648 651 654 657 660 663 666 669 672 
675 678 681 684 687 690 693 696 699 
702 705 708 711 714 717 720 723 726 
729 732 735 738 741 744 747 750 753 
756 759 762 765 768 771 774 777 780 
783 786 789 792 795 798 801 804 807 
810 813 816 819 822 825 828 831 834 
837 840 843 846 849 852 855 858 861 
864 867 870 873 876 879 882 885 888 
891 894 897 900 903 906 909 912 915 
918 921 924 927 930 933 936 939 942 
945 948 951 954 957 960 963 966 969 
972 975 978 981 984 987 990 993 996 
999 1002 1005 1008 1011 1014 1017 1020 1023 
1026 1029 1032 1035 1038 1041 1044 1047 1050 
1053 1056 1059 1062 1065 1068 1071 1074 1077 
1080 1083 1086 1089 1092 1095 1098 1101 1104 
1107 1110 1113 1116 1119 1122 1125 1128 1131 
1134 1137 1140 1143 1146 1149 1152 1155 1158 
1161 1164 1167 1170 1173 1176 1179 1182 1185 
1188 1191 1194 1197 1200 1203 1206 1209 1212 
1215 1218 1221 1224 1227 1230 1233 1236 1239 
1242 1245 1248 1251 1254 1257 1260 1263 1266 
1269 1272 1275 1278 1281 1284 1287 1290 1293 
1296 1299 1302 1305 1308 1311 1314 1317 1320 
1323 1326 1329 1332 1335 1338 1341 1344 1347 
1350 1353 1356 1359 1362 1365 1368 1371 1374 
1377 1380 1383 1386 1389 1392 1395 1398 1401 
1404 1407 1410 1413 1416 1419 1422 1425 1428 
1431 1434 1437 1440 1443 1446 1449 1452 1455 
1458 1461 1464 1467 1470 1473 1476 1479 1482 
1485 1488 1491 1494 1497 1500 
CONNECTIVITY vtktypeint64
43 49 50 105 85 95 95 93 114 
93 106 112 126 138 129 43 44 42 
50 44 43 34 44 50 38 34 50 
85 105 84 105 95 114 115 105 120 
105 114 120 114 93 112 115 120 125 
84 105 115 109 84 115 109 115 106 
117 114 112 120 114 126 120 126 129 
117 112 130 114 117 126 115 125 106 
112 106 130 125 120 129 127 106 125 
125 129 134 130 106 127 127 125 134 
127 134 136 129 144 147 134 129 147 
134 147 136 166 172 170 170 172 182 
5 11 7 6 7 18 5 8 11 
241 245 249 241 240 245 247 241 249 
244 241 247 234 241 244 251 248 247 
243 247 248 244 247 243 240 241 234 
230 240 234 230 231 236 231 230 234 
232 234 244 232 231 234 228 232 244 
231 222 238 232 222 231 222 232 228 
243 228 244 235 243 248 224 243 235 
217 228 243 224 217 243 217 222 228 
211 222 217 215 211 217 224 215 217 
176 169 179 164 163 187 159 164 187 
179 169 187 165 174 162 176 165 169 
174 165 176 165 161 169 158 163 164 
161 159 169 151 164 159 161 151 159 
142 158 164 151 142 164 145 151 161 
165 145 161 138 142 151 145 138 151 
66 39 85 39 54 85 54 39 76 
16 15 27 7 15 16 39 66 76 
7 11 15 18 7 16 159 187 169 
222 214 229 227 212 235 79 77 82 
103 111 118 132 141 140 132 140 143 
137 133 152 139 137 152 152 133 143 
156 143 140 140 141 146 152 143 149 
149 143 156 86 97 101 86 83 97 
82 86 88 77 83 82 82 83 86 
79 82 92 101 97 107 86 101 88 
88 101 102 88 102 104 82 88 104 
92 104 99 99 104 111 99 111 103 
92 82 104 102 113 123 101 107 102 
102 107 113 104 102 110 110 102 123 
104 110 111 111 121 122 111 110 121 
110 123 121 113 132 123 121 123 132 
122 121 133 133 121 132 133 132 143 
212 221 235 218 226 237 214 223 227 
211 223 214 221 224 235 206 215 224 
198 211 215 206 198 215 211 201 205 
198 201 211 221 206 224 206 221 209 
189 181 200 183 189 200 196 201 198 
189 187 181 179 187 189 181 178 180 
183 179 189 195 176 183 187 163 181 
163 178 181 163 162 178 176 179 183 
222 211 214 191 188 206 188 196 198 
196 190 201 209 191 206 191 209 197 
178 185 180 178 174 185 196 186 190 
188 186 196 182 186 188 176 195 185 
174 176 185 150 148 162 163 150 162 
162 148 165 158 150 163 127 150 158 
127 136 150 136 147 150 147 148 150 
144 148 147 148 145 165 142 127 158 
142 130 127 144 145 148 138 145 144 
138 117 142 129 138 144 117 130 142 
126 117 138 188 198 206 162 174 178 
73 70 77 157 149 168 149 156 168 
168 156 173 225 246 245 57 52 63 
12 10 24 13 22 25 220 210 233 
242 246 239 225 239 246 1 2 12 
0 1 4 3 0 4 1 12 19 
4 1 19 31 22 35 13 25 37 
19 12 44 44 12 24 44 24 46 
23 4 34 4 19 34 34 19 44 
35 57 30 30 57 63 35 26 57 
57 26 53 40 59 52 57 53 52 
156 155 173 156 146 155 152 149 157 
139 157 160 139 152 157 140 146 156 
131 139 160 141 154 146 141 131 154 
135 131 141 131 116 139 116 137 139 
135 128 131 128 116 131 124 135 141 
124 128 135 128 108 116 91 90 94 
87 91 94 91 74 90 75 91 87 
72 74 91 80 75 87 89 80 87 
61 62 64 71 64 74 167 157 168 
146 153 155 71 61 64 47 62 61 
23 34 38 27 23 38 49 16 27 
43 18 49 18 16 49 9 18 43 
42 17 43 17 9 43 29 21 42 
29 32 28 21 29 28 14 21 28 
24 13 37 20 14 28 26 20 28 
22 20 26 13 20 22 35 22 26 
15 23 27 8 23 15 9 6 18 
8 4 23 2 9 17 2 6 9 
21 17 42 12 2 10 10 13 24 
10 21 14 20 13 14 44 46 42 
10 14 13 11 8 15 6 5 7 
5 3 8 3 4 8 182 188 191 
190 192 205 185 195 207 197 209 199 
195 203 207 171 170 191 170 182 191 
182 172 186 186 172 190 193 191 197 
190 175 192 193 197 199 185 207 194 
180 185 194 205 192 199 205 199 208 
199 209 208 213 207 219 194 207 213 
204 194 216 194 213 216 213 219 216 
216 219 225 225 219 239 31 35 30 
22 31 41 25 22 41 56 45 30 
47 45 56 5 6 2 0 5 2 
52 59 63 3 5 0 10 2 17 
245 233 225 245 246 249 237 236 242 
247 249 251 246 250 251 249 246 251 
236 250 246 242 236 246 236 238 250 
250 248 251 238 229 250 229 248 250 
227 248 229 227 235 248 240 220 233 
240 233 245 237 226 230 226 240 230 
230 236 237 231 238 236 214 227 229 
226 220 240 222 229 238 93 100 106 
100 109 106 81 100 93 95 81 93 
85 81 95 100 76 109 76 84 109 
66 85 84 76 66 84 81 54 100 
54 76 100 85 54 81 49 38 50 
49 27 38 46 29 42 32 29 46 
24 33 46 33 32 46 24 37 33 
48 32 33 48 33 40 52 48 40 
33 37 40 37 25 40 28 48 26 
53 48 52 53 26 48 28 32 48 
55 68 70 80 68 75 78 70 80 
70 68 80 62 55 73 211 205 223 
226 210 220 223 212 227 201 190 205 
195 183 203 180 194 204 181 180 204 
200 181 204 208 209 221 183 200 210 
203 183 210 210 200 202 200 204 202 
204 216 202 223 208 212 208 221 212 
205 208 223 207 203 219 219 203 218 
203 210 226 203 226 218 202 216 225 
210 202 233 233 202 225 218 237 242 
219 218 242 219 242 239 177 168 184 
167 177 175 168 173 184 177 167 168 
160 157 167 155 171 173 155 170 171 
155 153 170 153 160 166 153 154 160 
146 154 153 154 131 160 75 72 91 
65 61 71 72 71 74 67 71 72 
75 60 72 68 60 75 41 36 51 
41 31 36 51 61 65 51 47 61 
36 47 51 45 47 36 68 56 60 
65 71 67 59 51 65 41 51 59 
36 31 45 47 55 62 55 56 68 
47 56 55 192 184 199 184 193 199 
175 184 192 177 184 175 171 191 193 
172 175 190 172 167 175 184 173 193 
173 171 193 172 160 167 166 160 172 
153 166 170 63 59 65 58 63 65 
58 30 63 60 58 67 67 58 65 
60 56 58 67 72 60 40 41 59 
25 41 40 45 31 30 56 30 58 
137 122 133 132 124 141 113 124 132 
118 111 122 73 55 70 73 69 62 
89 87 98 98 87 94 124 119 128 
137 116 122 77 70 83 83 70 78 
73 77 69 64 69 74 64 62 69 
83 78 97 97 78 89 78 80 89 
69 77 79 90 79 92 90 92 94 
74 69 79 74 79 90 107 97 96 
107 96 108 96 97 89 96 89 98 
108 96 98 98 94 99 98 99 103 
94 92 99 107 108 119 119 108 128 
108 98 118 98 103 118 107 119 113 
113 119 124 116 118 122 116 108 118 
0 2 1 10 17 21 
POINT_DATA 252
SCALARS k float
LOOKUP_TABLE default
1.33959 0.226892 -0.423361 2.00627 0.219201 -0.660635 -0.0108941 0.187026 -0.492519 
-0.162385 -0.957962 2.35493 0.0493685 -0.598282 0.361461 1.44231 -0.0486629 -0.263672 
0.0763116 0.168048 0.0420056 0.11054 0.141376 0.0811608 -0.128252 -0.0954962 0.142545 
-0.492565 0.264271 0.169141 -0.196487 -0.098114 0.247425 -0.240802 0.18301 0.0881333 
0.247123 -0.0977492 1.27372 4.73691 -0.394696 0.148422 -0.602387 -0.955644 -0.00580159 
0.239594 -0.00339872 -0.363948 0.284187 0.0552523 1.4856 0.114479 -0.123219 0.0178769 
0.228614 0.13658 0.105316 -0.112116 -0.0796111 -0.0656992 0.145265 -0.365263 0.19519 
0.0751117 -0.0298324 -0.224186 0.626393 0.264901 0.107084 0.095494 -0.163602 -0.0888942 
-0.18064 0.0142037 0.000240922 -0.0709698 0.377042 0.0293276 0.0857704 0.0647733 -0.185682 
-0.0427152 0.188658 0.103787 -0.0539856 -0.0436525 0.123314 -0.114068 0.171893 -0.109971 
0.0999781 0.123947 -0.0428019 -0.200591 0.000392079 -0.0657754 -0.0691187 0.0657586 -0.418941 
-0.131533 0.0293051 0.102657 0.230843 0.0186499 0.172293 -0.0351806 0.0780724 0.1156 
-0.386074 0.0664041 0.274037 -0.063216 -0.329031 0.430525 -0.445823 0.651463 -0.3559 
-0.262224 -0.348759 0.319012 0.0931499 -0.2917 -0.344145 0.0457962 0.330009 0.478568 
0.222057 -0.286198 0.240409 0.31628 -0.503577 -0.656692 -0.0143081 -0.275475 0.249471 
0.214047 0.308469 -0.116366 0.156407 -0.0211798 0.0730405 -0.294643 0.215164 0.495887 
-0.0422069 0.00324607 0.0983907 0.0187994 -0.263135 -0.0274276 -0.3821 0.129244 0.155984 
-0.0249781 0.145163 0.17076 0.14908 -0.129958 0.127299 0.276786 -0.332198 0.0647575 
-0.242645 0.0298851 0.157319 -0.186516 0.246651 -0.0311126 -0.039214 0.0516276 -0.0205439 
0.0607362 -0.18777 0.0436357 -0.305402 -0.0768315 -0.08781 0.138982 -0.444089 0.198646 
0.267974 0.156279 0.0123227 -0.470683 0.0152328 -0.0312141 -0.0667322 0.386424 0.0684829 
0.0389686 -0.135897 0.134233 -0.141174 0.0351813 0.415381 -0.258559 0.0190613 0.10046 
-0.0291831 -0.00907052 -0.0985266 -0.246307 -0.175709 -0.311291 0.150271 -0.18315 0.119908 
0.15495 0.0707055 0.170792 -0.503822 -0.387598 0.133481 0.54986 -0.109295 -0.0201237 
0.275382 0.133557 0.0247905 -0.144504 -0.179688 0.161669 -0.256474 -0.181308 0.332539 
0.0108527 -0.546165 -0.103258 0.303126 -0.525066 -0.384101 -0.47943 -0.218386 -0.090708 
0.0919511 0.0824515 -0.477661 -0.131735 -0.179044 0.894615 0.242674 0.336681 -0.082152 
0.333698 0.06587 0.351856 -0.10051 0.424451 -0.00553209 0.262757 0.202557 0.3022 

FIELD FieldData 7
h 1 252 float
2.65648 5.49915 4.90701 0.829658 5.28648 4.51642 6.93333 2.72327 2.96242 
-1.82387 5.34688 0.624325 3.6346 0.0255617 5.43167 0.388941 1.20337 2.48766 
3.34824 5.71961 -2.49747 5.41797 4.56373 2.79105 0.0476456 -2.89891 9.28557 
1.79802 11.3316 6.34608 4.48341 4.13929 7.8564 -0.80752 2.87776 1.06981 
1.96654 -2.52027 1.6223 2.06739 2.16744 -0.660514 3.02483 2.67698 5.03775 
4.85878 7.58001 6.0217 -1.36649 3.21075 15.0603 9.3529 -0.0948359 2.20745 
11.6042 4.42231 9.33212 4.79986 2.30757 6.56748 2.99378 1.63544 2.00277 
0.801934 1.12764 2.2642 24.7095 3.38683 2.45174 4.03888 1.1835 4.05533 
4.87553 5.53057 1.58124 1.64618 0.588122 10.3034 2.33819 -0.989682 1.5559 
6.15071 -0.0615111 3.12673 7.97425 1.57776 1.12565 -1.32035 8.22223 0.970469 
-0.498252 2.76492 -1.36995 2.1594 -0.482987 0.497817 0.216422 1.65665 9.90701 
-0.35731 4.45553 5.47298 8.40903 -0.505568 -0.849638 1.0579 -0.567328 1.17294 
-0.824859 1.83389 -0.515383 -0.91155 -7.01046 11.4661 -1.03227 22.1703 4.79594 
3.22754 0.404958 1.33521 2.90341 -0.114649 -1.30518 3.96047 2.58494 36.1918 
3.02626 -0.420558 -1.14217 7.51816 -0.271514 -2.34023 7.93544 -0.826656 27.2002 
0.731078 3.01563 -2.68547 2.69591 -0.7584 4.40179 2.96708 4.38262 -0.24632 
3.78966 5.42451 6.46345 7.49545 3.639 -1.55788 0.513066 10.2541 -2.97629 
2.55983 0.741726 8.84555 7.37662 -2.89486 2.00441 8.39592 -3.27559 5.34473 
3.19965 0.608295 6.55389 0.349537 1.26786 -0.184242 -1.54137 4.17557 3.7466 
8.72964 -2.81787 5.63397 -1.84911 1.219 -0.303194 -2.65513 2.52831 -1.95312 
0.152375 4.97595 2.00441 -2.22712 -0.108666 -1.98552 -1.78148 9.48585 1.71351 
2.87031 5.37 5.95691 0.48772 5.89272 -1.61836 -1.50835 -2.08267 6.22241 
0.286488 0.855456 2.23306 -6.32757 2.96667 0.160411 2.24009 -1.33693 4.12789 
-1.99724 0.327637 11.2937 1.49022 -4.67945 0.640265 -0.953891 1.91002 1.9336 
2.78572 1.36015 -2.58865 -1.8671 1.81885 7.79539 -5.00208 -5.10016 7.31248 
5.28375 -2.00212 0.0967327 1.34128 -0.992357 -4.48902 -2.92209 -1.06647 3.35728 
-1.05087 4.86711 -3.55001 -3.33497 -2.4563 0.717053 1.80002 3.97875 -3.1533 
8.614 1.27218 3.96628 2.49031 7.64046 3.40306 7.05585 -0.0763201 2.76709 

kmin 1 252 float
7.15659 12.3996 10.6752 3.60178 7.36406 10.0382 13.5048 8.62603 5.58219 
-0.335273 10.8891 2.52075 8.74434 1.27372 10.5943 2.38591 6.13043 4.84088 
9.4152 11.5302 1.1085 11.3276 8.83279 4.79426 1.9894 -0.822222 17.5286 
3.59751 21.4203 12.6516 8.49359 8.02187 15.0535 0.343053 5.57323 2.15049 
3.6835 -1.0002 4.8943 4.67808 5.53292 0.0670067 6.99373 5.97928 12.3569 
9.16334 15.6717 11.7098 1.28146 8.83441 29.7417 19.2886 0.29959 3.53008 
24.6576 8.15363 18.1676 8.96235 4.40439 13.9898 6.27416 3.98892 3.32568 
1.755 2.80558 5.12664 45.6132 7.34462 4.72539 7.58953 1.73926 8.67089 
10.3774 10.2601 3.47975 3.81667 1.85482 19.2346 4.27627 0.0604371 3.18176 
14.4146 1.37861 5.28538 13.6184 2.74235 1.80594 -0.113787 13.8487 2.0531 
0.0246021 6.10695 -0.0999191 5.13818 0.660394 1.79315 0.848331 2.77314 22.1857 
0.745791 9.44131 8.6156 13.8186 0.971039 0.0104933 2.03801 0.351156 2.34861 
0.387762 3.86061 0.0123362 -0.128388 -0.744785 19.88 0.771635 42.1333 12.3861 
7.59425 3.74201 2.45162 5.1471 0.94055 -0.163337 5.83523 3.81877 73.499 
5.82818 0.384097 0.723975 14.3126 -0.164143 -0.749036 13.8267 0.263529 53.2769 
1.52311 6.19237 -0.989627 5.29722 0.572465 6.75405 4.68027 8.55848 0.34982 
7.18126 10.9525 11.5136 16.6823 8.51493 -0.653117 1.18519 19.7315 -0.924426 
4.30102 1.05246 16.2684 13.5193 -0.858872 3.39737 16.1307 -1.62084 10.5331 
7.29155 0.829936 12.4421 1.3792 2.11772 1.21764 -0.316555 8.75824 6.64984 
16.0156 -1.29592 10.1147 -0.311582 3.91091 0.207278 -0.565538 5.2036 0.856987 
2.10565 9.10792 3.48087 0.451955 1.12514 -0.850243 -0.54298 17.8863 2.92559 
4.69621 12.6825 10.7456 2.75087 10.4678 0.894282 -0.616895 -1.19557 10.8049 
0.804866 0.945455 3.63482 -1.68707 4.79545 2.02902 3.28988 0.525321 6.91427 
-0.751171 1.08557 20.6523 3.15516 -2.23829 1.26416 0.141115 7.33094 3.08379 
4.79545 2.67906 -1.07636 0.166087 3.93094 13.1245 -3.51217 -1.5123 12.2746 
8.47689 -1.38994 0.315231 2.86611 1.3123 -2.51276 -0.910071 0.515132 6.1213 
1.59506 7.2547 -0.358373 -0.841641 0.549539 2.96004 4.04415 7.14156 0.663823 
13.5629 3.47374 6.20888 3.41788 10.4156 4.43487 10.6074 1.37838 4.09389 

kmax 1 252 float
-1.84362 -1.40129 -0.86117 -1.94246 3.2089 -1.00536 0.361868 -3.1795 0.34265 
-3.31247 -0.195348 -1.2721 -1.47515 -1.2226 0.269015 -1.60803 -3.7237 0.134431 
-2.71872 -0.0910196 -6.10344 -0.491629 0.294662 0.787839 -1.89411 -4.97561 1.04251 
-0.00146667 1.24282 0.0405843 0.473237 0.256716 0.659336 -1.95809 0.182283 -0.010861 
0.249587 -4.04033 -1.64969 -0.543301 -1.19804 -1.38803 -0.944073 -0.625321 -2.28143 
0.554214 -0.511651 0.333646 -4.01444 -2.41291 0.378846 -0.582788 -0.489262 0.884831 
-1.44927 0.690994 0.496615 0.637376 0.210749 -0.854809 -0.286612 -0.718049 0.679871 
-0.151128 -0.550294 -0.598249 3.80575 -0.570967 0.17809 0.488224 0.627743 -0.560234 
-0.626377 0.80099 -0.317258 -0.524309 -0.678575 1.37215 0.400101 -2.0398 -0.0699574 
-2.11313 -1.50164 0.968071 2.33005 0.413171 0.445372 -2.52692 2.59574 -0.112166 
-1.02111 -0.577114 -2.63999 -0.819382 -1.62637 -0.797514 -0.415488 0.54015 -2.37168 
-1.46041 -0.53025 2.33035 2.99945 -1.98217 -1.70977 0.0777901 -1.48581 -0.00273524 
-2.03748 -0.192825 -1.0431 -1.69471 -13.2761 3.05232 -2.83618 2.20736 -2.79426 
-1.13918 -2.93209 0.218797 0.659712 -1.16985 -2.44702 2.08572 1.3511 -1.11532 
0.224345 -1.22521 -3.00832 0.723684 -0.378885 -3.93143 2.04417 -1.91684 1.12346 
-0.0609551 -0.161115 -4.38132 0.0946092 -2.08926 2.04954 1.25389 0.20677 -0.84246 
0.398048 -0.103458 1.41333 -1.69145 -1.23693 -2.46264 -0.159062 0.776634 -5.02816 
0.818638 0.430996 1.42273 1.23392 -4.93084 0.611439 0.661137 -4.93034 0.156354 
-0.892241 0.386654 0.665713 -0.68013 0.418005 -1.58613 -2.76619 -0.407101 0.84335 
1.4437 -4.33981 1.15329 -3.38663 -1.47291 -0.813666 -4.74473 -0.146972 -4.76323 
-1.8009 0.843981 0.527956 -4.90619 -1.34248 -3.12079 -3.01997 1.08539 0.501439 
1.04441 -1.94247 1.16817 -1.77543 1.31767 -4.131 -2.3998 -2.96976 1.63993 
-0.23189 0.765457 0.831309 -10.9681 1.13789 -1.70819 1.1903 -3.19918 1.34152 
-3.24331 -0.430294 1.93515 -0.174721 -7.12062 0.0163666 -2.0489 -3.51091 0.783416 
0.775978 0.0412413 -4.10093 -3.90029 -0.293246 2.46623 -6.49198 -8.68802 2.35038 
2.09062 -2.6143 -0.121765 -0.183553 -3.29701 -6.46528 -4.93411 -2.64807 0.593258 
-3.6968 2.47952 -6.74164 -5.82829 -5.46214 -1.52594 -0.44411 0.815934 -6.97043 
3.66512 -0.92937 1.72368 1.56273 4.86534 2.37125 3.50433 -1.53102 1.44029 

hks 16 252 double
1.4597551496 1.4756253135 1.4922014001 1.5094574024 1.5273577046 1.5458563579 1.5648969059 1.5844128297 1.604328627 
1.6245614745 1.6450233708 1.6656236079 1.6862713977 1.7068784663 1.7273614467 1.7476439212 1.259680662 1.2717200169 
1.2846621059 1.2985401527 1.3133711815 1.329154643 1.3458717802 1.3634857973 1.3819428397 1.4011737329 1.4210963717 
1.4416186068 1.4626414409 1.4840623353 1.50577843 1.5276895001 1.0648748194 1.0836728189 1.1032985875 1.1237153637 
1.1448752799 1.1667198375 1.1891809241 1.2121823453 1.235641794 1.2594731376 1.2835888754 1.307902602 1.3323313147 
1.3567974235 1.3812303491 1.4055676389 1.6852438538 1.7018587086 1.7188019246 1.7360274706 1.753485201 1.7711210645 
1.788877548 1.8066943777 1.8245094694 1.8422600942 1.8598842 1.8773218096 1.8945164062 1.9114162124 1.9279752818 
1.9441543325 1.5247593524 1.5440901126 1.563657203 1.5834294517 1.6033735075 1.6234532041 1.6436291652 1.6638587046 
1.6840960478 1.7042928673 1.7243990945 1.7443639465 1.7641370908 1.7836698585 1.802916422 1.8218348575 1.4893166517 
1.5175290348 1.5456935717 1.5737139986 1.6014926898 1.628932509 1.655938933 1.6824223272 1.7083002213 1.7334994249 
1.7579578314 1.7816257786 1.8044668748 1.8264582442 1.8475901918 1.8678653343 1.4064899088 1.4236280186 1.4416226221 
1.4604279331 1.4799857229 1.5002253284 1.5210643492 1.5424100534 1.5641614385 1.5862118321 1.6084518614 1.6307725878 
1.6530685913 1.6752407994 1.697198888 1.7188631261 1.6208541692 1.646085249 1.6711636038 1.6960063572 1.7205325124 
1.744664482 1.7683296345 1.7914617648 1.8140024026 1.8359018745 1.8571200581 1.8776267877 1.8974018979 1.9164349194 
1.9347244594 1.9522773234 1.7480377546 1.7733214008 1.7982469458 1.8227057182 1.846596484 1.8698276594 1.892319295 
1.9140047153 1.9348317109 1.9547632061 1.9737773613 1.991867106 2.0090391416 2.0253124883 2.0407166757 2.0552896984 
1.2614740375 1.2674825998 1.274915427 1.2838067282 1.2941687136 1.3059901944 1.3192361518 1.3338483497 1.3497469883 
1.3668333094 1.3849929907 1.4041001033 1.4240213739 1.4446204793 1.4657621183 1.4873156413 0.87182404326 0.87945032289 
0.8874144781 0.89569237862 0.90426430988 0.91311641755 0.92224178296 0.93164105235 0.94132257986 0.95130208401 0.96160185643 
0.97224959441 0.98327695268 0.99471792226 1.0066071459 1.018978271 1.8082273873 1.8278369833 1.847676071 1.8676113301 
1.8875097242 1.9072422296 1.926687386 1.9457344862 1.9642862365 1.982260762 1.9995928732 2.0162345634 2.0321547586 
2.0473383899 2.0617848956 2.0755062895 1.0152365739 1.019498685 1.0250653896 1.0319352495 1.0400963322 1.049526597 
1.0601943975 1.0720591088 1.085071894 1.0991766161 1.1143108947 1.1304072903 1.1473945857 1.1651991178 1.1837461057 
1.202960913 0.90991188486 0.91384476484 0.91793874337 0.92215388088 0.92644467229 0.93076262533 0.93505911338 0.93928831152 
0.94341001769 0.947392172 0.95121291604 0.95486207571 0.95834200138 0.96166775075 0.96486664842 0.96797729634 0.98142053256 
0.98430431699 0.987221555 0.99012077284 0.99295327226 0.99567632467 0.99825615601 1.0006705108 1.0029106158 1.0049824125 
1.0069069873 1.0087201946 1.0104715284 1.0122223515 1.0140436285 1.0160133308 1.7486633698 1.775504984 1.8018180703 
1.8275006066 1.8524581553 1.8766063938 1.8998733576 1.9222012411 1.9435476314 1.9638860915 1.9832060642 2.0015121205 
2.018822627 2.0351679447 2.0505882989 2.0651314699 1.6252241452 1.6479915719 1.6706407927 1.6931118426 1.7153492082 
1.7373018937 1.7589234013 1.780171665 1.8010089725 1.8214019002 1.8413212751 1.8607421666 1.8796439017 1.8980100851 
1.9158286061 1.9330916087 0.99055099907 0.99761303988 1.0054464823 1.0140581978 1.0234527054 1.0336322342 1.0445966419 
1.0563432122 1.0688663731 1.0821573872 1.0962040672 1.1109905629 1.1264972526 1.1427007578 1.1595740784 1.1770868345 
1.4610378744 1.4757295115 1.4910319184 1.5069585361 1.5235109599 1.5406776235 1.5584330981 1.5767380801 1.5955400889 
1.6147748395 1.634368204 1.6542386311 1.674299862 1.6944637656 1.7146431172 1.7347541586 1.1807877318 1.1931533905 
1.2065340844 1.2209403249 1.2363678115 1.252796577 1.2701907865 1.2884992419 1.3076565861 1.3275851477 1.3481973148 
1.3693982854 1.3910890166 1.4131691876 1.4355399994 1.4581066613 0.98682057817 0.9917577486 0.99666444852 1.0014661415 
1.0060853245 1.0104450383 1.0144724956 1.0181025984 1.0212811244 1.0239673907 1.0261362479 1.0277793144 1.0289054212 
1.0295402955 1.0297255622 1.0295171785 1.0625010786 1.0608896138 1.059256848 1.0576393368 1.0560800422 1.0546285942 
1.0533412586 1.0522805659 1.0515145803 1.0511158204 1.0511598681 1.0517237328 1.0528840514 1.0547152203 1.0572875538 
1.0606655587 0.99317547867 0.99592619815 0.99875339184 1.0016080607 1.0044353515 1.0071760587 1.0097684815 1.0121505411 
1.0142620404 1.0160469317 1.0174554596 1.018446059 1.0189869086 1.0190570757 1.0186472196 1.0177598576 1.6609610397 
1.683704052 1.7065839395 1.7294864401 1.75230003 1.7749179036 1.7972398303 1.8191738358 1.8406376555 1.8615599115 
1.8818809679 1.9015534326 1.920542284 1.9388246216 1.956389056 1.9732347743 0.94380664242 0.94301160587 0.94285254568 
0.94331163251 0.94436830242 0.94600143254 0.94819139919 0.95092187884 0.95418127685 0.95796370342 0.96226945632 0.96710501134 
0.9724825596 0.97841916167 0.9849356097 0.99205509946 1.0360163221 1.031135492 1.0268205717 1.0230648195 1.0198476014 
1.0171347018 1.0148793411 1.013023888 1.0115022007 1.0102424754 1.0091704399 1.0082126991 1.0073000311 1.0063704404 
1.0053717998 1.0042639508 1.0838804792 1.0862340958 1.0883556716 1.0902131732 1.0917722012 1.0929970982 1.0938522681 
1.0943036343 1.0943201534 1.0938753009 1.09294845 1.0915260761 1.0896027383 1.0871818055 1.0842759141 1.0809071598 
1.6320440093 1.654650204 1.6772222025 1.6997045916 1.7220403009 1.7441711941 1.7660388933 1.7875858063 1.808756302 