# vtk DataFile Version 5.1
vtk output
ASCII
DATASET POLYDATA
POINTS 252 float
0.860803 -0.076319 -0.105188 0.856424 -0.083293 -0.117513 0.806892 -0.050575 -0.060008 
-0.334859 0.13363 -0.148071 0.801177 -0.066086 -0.066556 0.188106 0.206906 0.003603 
0.265258 0.170795 -0.00969 0.073745 0.259821 0.003802 0.317506 0.173251 0.001509 
0.204374 0.234851 0.029149 0.061603 0.279829 0.017674 0.872934 -0.15892 -0.100656 
0.880463 -0.194369 -0.100416 0.890005 -0.136777 -0.106613 0.814753 -0.103092 -0.042462 
0.412156 0.120211 -0.001184 -0.127726 0.265124 -0.000961 0.711013 -0.035318 -0.026897 
-0.13582 0.235454 -0.025571 0.331787 0.124008 -0.014156 -0.044569 0.276904 0.013492 
-0.214803 0.23696 -0.007561 0.41503 0.083231 -0.002685 0.380867 0.128401 0.000483 
0.279543 0.206861 0.030279 -0.118017 0.201967 -0.020661 0.083792 0.216767 0.010441 
0.194378 0.174061 0.012123 0.493316 0.089505 0.017581 -0.162426 0.26103 0.014263 
0.341181 0.17311 0.030265 -0.039295 0.240333 0.005747 0.708049 -0.045541 -0.036618 
0.627638 0.009746 -0.003895 0.149417 0.265374 0.049683 0.245841 0.213542 0.055949 
0.794429 -0.069912 -0.007539 -0.250733 0.164807 -0.025299 0.840883 -0.156964 -0.088869 
0.48289 0.102178 0.042955 0.874914 -0.113797 -0.02791 0.017486 0.221502 0.011814 
0.044155 0.293548 0.056634 0.265435 0.119786 0.011998 0.559763 0.019791 0.002079 
-0.320795 0.122452 -0.103887 0.612245 -0.018122 -0.004117 0.404202 0.14385 0.038153 
-0.248949 0.199498 -0.02629 -0.251311 0.068841 -0.080225 0.848228 -0.077793 -0.027049 
0.626083 0.009226 0.027604 0.485369 0.055321 0.003496 -0.256006 0.03822 -0.111292 
0.88236 -0.173797 -0.055259 -0.057787 0.29026 0.057516 0.338601 0.084248 0.004073 
0.82756 -0.1671 -0.056388 0.767846 -0.0754 -0.046084 0.697424 -0.061678 -0.022061 
0.122823 0.183379 0.031459 0.534808 0.005402 0.015296 0.146292 0.251733 0.06193 
-0.089452 0.19615 0.000727 0.873097 -0.230966 -0.077111 0.321028 0.156693 0.048125 
-0.23205 0.002551 -0.133829 0.374074 0.118163 0.048325 0.853088 -0.237281 -0.097808 
-0.257536 0.092544 -0.091825 0.020433 0.208913 0.032049 -0.319498 0.003065 -0.150649 
0.110436 0.228882 0.064614 0.553312 0.058904 0.03576 0.316184 0.099126 0.028419 
0.127959 0.183795 0.051448 -0.121565 0.19807 0.022777 0.267103 0.143036 0.048102 
0.045699 0.225152 0.057933 -0.158084 0.25846 0.041465 -0.312903 0.095076 -0.115767 
-0.270816 0.113256 -0.083905 0.375357 0.067527 0.017154 0.353798 0.101418 0.040702 
0.194897 0.148557 0.038849 -0.294594 0.191844 -0.029015 0.441868 0.105793 0.056626 
-0.039204 0.252788 0.075356 -0.258049 0.036411 -0.090076 0.83426 -0.198181 -0.035075 
0.013186 0.280158 0.074646 0.197296 0.184697 0.066343 0.417076 0.075607 0.049782 
-0.239422 0.235603 0.035391 -0.287472 0.140348 -0.038411 -0.235556 0.100139 -0.033859 
-0.158653 0.171173 -0.006978 -0.145049 0.23752 0.048051 0.565784 0.027264 0.052195 
-0.360405 0.140322 -0.053001 -0.379984 -0.004054 -0.102647 0.523632 0.001997 0.045548 
-0.062562 0.219652 0.050935 0.505355 0.06168 0.050757 0.432793 0.049241 0.016618 
-0.328329 -0.050386 -0.132381 -0.363304 0.162779 -0.019473 -0.246192 -0.034268 -0.119572 
0.72253 -0.05815 0.004064 0.783392 -0.120426 0.010324 -0.291698 0.215644 0.008946 
-0.203562 0.17946 0.029619 -0.340156 0.112368 -0.055127 -0.212477 0.215906 0.044315 
0.427076 0.044714 0.039057 -0.27089 0.08077 -0.065095 -0.357182 -0.032823 -0.147048 
0.841764 -0.110409 0.018447 0.641309 -0.05623 0.013901 0.754443 -0.109991 0.041168 
-0.262991 0.001814 -0.08305 0.488706 0.030151 0.055527 -0.228016 0.150319 0.008872 
-0.189552 0.080182 -0.026073 -0.421593 0.059992 -0.063957 -0.203862 0.050121 0.002286 
-0.377189 -0.012363 -0.127455 -0.357383 0.066331 -0.049999 0.824474 -0.142715 0.051747 
-0.186974 0.070224 0.018958 -0.302467 -0.022132 -0.096133 -0.30748 0.102453 -0.026598 
-0.187068 -0.063466 -0.091815 -0.343506 -0.093717 -0.108044 0.638186 -0.032609 0.056655 
-0.259376 -0.034756 -0.096196 0.583977 -0.025969 0.048416 0.702476 -0.087195 0.045284 
-0.352543 0.172845 0.011611 -0.147905 0.031786 -0.001657 0.639306 -0.049933 0.059133 
0.866503 -0.199543 -0.00106 -0.392354 -0.057187 -0.091231 0.741592 -0.115828 0.00779 
-0.311977 -0.11809 -0.061268 -0.318493 0.11827 0.001115 -0.280552 0.179394 0.041024 
0.844309 -0.161985 0.041762 -0.328979 -0.041526 -0.100065 0.786356 -0.10954 0.037998 
-0.427142 0.008237 -0.059503 -0.165047 0.000644 -0.078019 -0.426092 0.103762 -0.033989 
-0.350593 0.132368 0.013218 -0.194917 0.014288 -0.067683 -0.46448 0.049799 -0.052157 
0.816444 -0.157217 0.042861 -0.414558 0.113444 0.006336 -0.154759 -0.046582 -0.093055 
-0.200149 0.029431 -0.019783 -0.149818 -0.053306 -0.019865 -0.377045 0.066451 -0.008497 
-0.359867 -0.017135 -0.093338 -0.179186 0.029773 -0.025062 -0.195545 -0.075179 -0.071683 
-0.18365 -0.039045 -0.045876 -0.170082 -0.137715 -0.06715 -0.469773 0.060091 -0.001267 
-0.183969 -0.125198 -0.04313 -0.432485 0.053498 0.008817 -0.37617 -0.096262 -0.101328 
-0.473518 -0.008017 -0.055226 -0.122081 -0.116213 -0.052474 -0.427592 -0.011364 -0.035705 
-0.128114 -0.059553 -0.042486 -0.334737 -0.105531 -0.036443 -0.457252 -0.063138 -0.041766 
-0.182638 -0.019784 -0.003339 -0.498127 0.001333 -0.039092 -0.128312 -0.044347 0.051368 
-0.159163 0.04577 0.036407 -0.349322 -0.153817 -0.061674 -0.505446 -0.08221 -0.015833 
-0.190355 -0.015725 0.023401 -0.127534 -0.139228 0.003544 -0.497789 0.002514 0.011029 
-0.160134 -0.17387 -0.043504 -0.196003 -0.160175 -0.017287 -0.443565 -0.081872 0.003325 
-0.14564 -0.194535 -0.005753 -0.447622 -0.096575 -0.021174 -0.510625 -0.089697 0.023885 
-0.451609 -0.008417 0.007477 -0.3838 -0.120311 -0.039536 -0.171664 -0.126536 -0.00716 
-0.163643 -0.052612 0.071334 -0.183153 -0.065883 0.020073 -0.15035 -0.055342 0.014243 
-0.483693 -0.001377 0.020294 -0.132419 -0.080513 0.038436 -0.140276 -0.116681 0.004309 
-0.186512 -0.164597 -0.045428 -0.139034 -0.059576 0.08161 -0.292385 -0.192073 0.014319 
-0.282567 -0.15313 -0.010353 -0.472169 -0.137343 -0.001772 -0.468888 -0.052456 0.035241 
-0.177128 -0.18241 0.05546 -0.441356 -0.153827 0.004768 -0.375129 -0.112352 -0.026723 
-0.215361 -0.139684 0.035119 -0.34551 -0.173854 0.00428 -0.221003 -0.126028 0.056418 
-0.178529 -0.109992 0.095989 -0.235068 -0.180787 0.038019 -0.158695 -0.138187 0.052138 
-0.44535 -0.123189 0.055742 -0.202987 -0.167431 0.035954 -0.480761 -0.173854 0.033231 
-0.248792 -0.208917 0.012525 -0.298801 -0.195825 0.043475 -0.486233 -0.107907 0.071633 
-0.335632 -0.153343 0.029419 -0.239454 -0.226454 0.005565 -0.428112 -0.143853 0.019877 
-0.277541 -0.149656 0.06328 -0.167141 -0.1335 0.095252 -0.215887 -0.12893 0.080293 
-0.493581 -0.155065 0.043522 -0.278398 -0.181 0.074882 -0.206199 -0.182848 0.080946 
-0.393022 -0.198009 0.052901 -0.418607 -0.222354 0.041715 -0.33854 -0.256033 0.041333 
-0.283386 -0.261502 0.037158 -0.403293 -0.184751 0.089666 -0.328843 -0.227708 0.030566 
-0.218721 -0.1706 0.102117 -0.209405 -0.248079 0.040431 -0.197709 -0.227182 0.061861 
-0.304827 -0.213344 0.063574 -0.264646 -0.254023 0.087782 -0.276227 -0.212602 0.084624 
-0.470436 -0.160165 0.090788 -0.313639 -0.269529 0.082052 -0.380639 -0.260725 0.085047 
-0.428892 -0.175253 0.106029 -0.439936 -0.23421 0.083546 -0.351806 -0.211805 0.112048 
-0.267503 -0.225683 0.103127 -0.409079 -0.203981 0.118533 -0.356318 -0.233341 0.115523 

POLYGONS 501 1500
OFFSETS vtktypeint64
0 3 6 9 12 15 18 21 24 
27 30 33 36 39 42 45 48 51 
54 57 60 63 66 69 72 75 78 
81 84 87 90 93 96 99 102 105 
108 111 114 117 120 123 126 129 132 
135 138 141 144 147 150 153 156 159 
162 165 168 171 174 177 180 183 186 
189 192 195 198 201 204 207 210 213 
216 219 222 225 228 231 234 237 240 
243 246 249 252 255 258 261 264 267 
270 273 276 279 282 285 288 291 294 
297 300 303 306 309 312 315 318 321 
324 327 330 333 336 339 342 345 348 
351 354 357 360 363 366 369 372 375 
378 381 384 387 390 393 396 399 402 
405 408 411 414 417 420 423 426 429 
432 435 438 441 444 447 450 453 456 
459 462 465 468 471 474 477 480 483 
486 489 492 495 498 501 504 507 510 
513 516 519 522 525 528 531 534 537 
540 543 546 549 552 555 558 561 564 
567 570 573 576 579 582 585 588 591 
594 597 600 603 606 609 612 615 618 
621 624 627 630 633 636 639 642 645 
648 651 654 657 660 663 666 669 672 
675 678 681 684 687 690 693 696 699 
702 705 708 711 714 717 720 723 726 
729 732 735 738 741 744 747 750 753 
756 759 762 765 768 771 774 777 780 
783 786 789 792 795 798 801 804 807 
810 813 816 819 822 825 828 831 834 
837 840 843 846 849 852 855 858 861 
864 867 870 873 876 879 882 885 888 
891 894 897 900 903 906 909 912 915 
918 921 924 927 930 933 936 939 942 
945 948 951 954 957 960 963 966 969 
972 975 978 981 984 987 990 993 996 
999 1002 1005 1008 1011 1014 1017 1020 1023 
1026 1029 1032 1035 1038 1041 1044 1047 1050 
1053 1056 1059 1062 1065 1068 1071 1074 1077 
1080 1083 1086 1089 1092 1095 1098 1101 1104 
1107 1110 1113 1116 1119 1122 1125 1128 1131 
1134 1137 1140 1143 1146 1149 1152 1155 1158 
1161 1164 1167 1170 1173 1176 1179 1182 1185 
1188 1191 1194 1197 1200 1203 1206 1209 1212 
1215 1218 1221 1224 1227 1230 1233 1236 1239 
1242 1245 1248 1251 1254 1257 1260 1263 1266 
1269 1272 1275 1278 1281 1284 1287 1290 1293 
1296 1299 1302 1305 1308 1311 1314 1317 1320 
1323 1326 1329 1332 1335 1338 1341 1344 1347 
1350 1353 1356 1359 1362 1365 1368 1371 1374 
1377 1380 1383 1386 1389 1392 1395 1398 1401 
1404 1407 1410 1413 1416 1419 1422 1425 1428 
1431 1434 1437 1440 1443 1446 1449 1452 1455 
1458 1461 1464 1467 1470 1473 1476 1479 1482 
1485 1488 1491 1494 1497 1500 
CONNECTIVITY vtktypeint64
30 35 65 60 84 75 75 84 91 
21 48 85 110 21 85 31 70 63 
70 60 75 65 35 77 35 91 77 
21 110 93 93 29 21 76 102 97 
97 102 87 31 41 70 63 70 102 
76 63 102 70 78 102 102 78 87 
78 90 87 62 90 72 75 72 78 
70 75 78 91 72 75 91 62 72 
35 34 62 35 62 91 29 93 79 
79 93 113 97 79 113 16 29 55 
55 29 79 55 79 97 55 97 87 
42 55 90 90 55 87 90 62 42 
72 90 78 64 141 89 6 43 27 
22 23 15 19 22 56 19 23 22 
19 8 23 6 8 19 6 19 43 
69 3 81 81 3 45 22 28 52 
22 15 28 3 69 80 17 32 33 
32 36 2 36 17 108 36 32 17 
0 50 40 50 2 36 4 1 14 
32 4 58 64 12 54 13 54 12 
11 13 12 13 40 54 68 12 64 
68 38 12 11 12 38 38 68 57 
45 3 80 2 1 4 0 2 50 
2 0 1 13 0 40 1 0 11 
14 1 38 38 1 11 11 0 13 
34 42 62 10 42 34 10 20 42 
10 31 20 215 226 230 224 216 235 
218 232 247 231 235 240 220 230 229 
249 217 242 237 225 229 230 237 229 
191 228 243 191 243 221 246 216 221 
235 216 246 221 243 246 213 227 237 
227 225 237 226 213 237 230 226 237 
233 234 244 234 238 244 232 245 247 
250 247 245 232 233 245 245 233 244 
244 241 249 251 244 249 245 244 251 
244 238 241 235 246 248 248 246 250 
2 4 32 250 245 251 248 250 251 
242 240 248 248 240 235 242 248 249 
249 248 251 247 250 243 246 243 250 
42 20 55 20 16 55 24 34 35 
9 10 34 5 7 9 7 10 9 
7 41 31 7 26 41 10 7 31 
18 20 31 20 18 16 21 18 48 
16 21 29 16 18 21 8 24 30 
30 24 35 24 9 34 8 9 24 
6 27 5 8 6 9 9 6 5 
26 5 27 7 5 26 25 18 31 
18 37 48 47 23 30 8 30 23 
39 15 47 15 23 47 26 27 60 
70 26 60 41 26 70 96 76 111 
96 63 76 25 63 96 37 25 96 
94 48 37 110 85 106 85 48 94 
85 99 106 47 67 86 67 65 83 
30 65 67 47 30 67 65 77 83 
74 83 77 77 43 74 84 77 91 
43 77 84 27 43 84 60 27 84 
37 96 122 94 37 122 99 94 112 
99 85 94 39 86 103 92 103 86 
39 47 86 83 114 92 86 67 92 
67 83 92 74 82 83 56 74 43 
56 82 74 43 19 56 103 92 121 
25 31 63 18 25 37 15 39 28 
53 100 88 66 71 53 71 126 100 
53 71 100 17 51 108 154 88 120 
114 104 101 104 61 101 95 45 115 
112 94 131 120 135 165 101 61 136 
137 134 140 118 137 140 120 100 162 
130 120 162 88 100 120 154 120 165 
98 121 134 121 101 134 101 136 134 
134 136 140 51 98 134 150 124 127 
115 49 125 49 69 163 163 69 139 
49 163 159 125 49 159 69 123 139 
121 92 114 114 101 121 98 103 121 
152 124 155 99 112 124 99 124 152 
124 112 127 127 112 131 127 131 161 
95 115 125 123 81 95 123 95 129 
17 33 51 61 46 118 44 46 61 
158 66 151 105 71 66 71 105 116 
71 116 126 36 108 119 118 59 143 
46 59 118 32 59 46 50 117 40 
109 14 156 50 36 117 58 14 109 
59 58 143 54 40 141 57 89 156 
14 57 156 14 38 57 64 54 141 
68 64 89 57 68 89 33 32 46 
4 14 58 32 58 59 136 118 140 
61 118 136 158 174 172 158 151 174 
135 107 164 132 164 107 107 158 132 
135 130 105 130 135 120 105 107 135 
105 148 144 105 130 148 130 162 148 
142 116 170 126 142 100 126 116 142 
119 137 143 119 108 137 118 143 137 
137 108 134 116 133 170 133 116 105 
147 117 128 143 109 149 128 117 149 
40 147 141 40 117 147 108 51 134 
66 158 107 105 66 107 36 149 117 
149 36 119 192 206 188 214 210 215 
227 210 212 210 197 215 215 197 199 
210 196 197 165 135 164 124 171 155 
152 155 167 180 123 129 138 152 157 
166 158 172 162 100 175 148 162 175 
148 175 144 165 164 168 154 165 160 
171 150 176 150 173 176 174 151 160 
151 154 160 159 177 183 177 163 197 
163 139 197 155 171 178 167 155 178 
171 124 150 150 127 173 127 161 173 
159 183 125 163 177 159 152 167 157 
169 157 167 173 161 169 153 157 169 
161 153 169 131 145 161 145 153 161 
190 224 208 224 190 188 176 190 205 
182 176 205 184 200 207 200 217 207 
217 194 187 200 194 217 204 210 214 
212 204 225 204 212 210 204 175 225 
204 144 175 175 209 222 209 193 211 
190 208 205 201 223 219 187 201 219 
201 186 223 181 204 203 211 181 203 
223 186 189 169 167 198 178 182 191 
193 181 211 179 180 202 139 180 179 
125 183 195 180 129 195 129 125 195 
169 198 192 173 169 192 178 191 185 
167 178 185 199 197 179 197 139 179 
177 197 196 177 196 183 173 192 188 
190 173 188 176 173 190 171 176 182 
178 171 182 174 160 200 200 160 194 
160 165 194 175 100 209 142 193 209 
172 184 189 174 200 184 194 168 187 
165 168 194 181 144 204 133 144 181 
186 172 189 168 201 187 201 166 186 
100 142 209 172 174 184 193 142 170 
69 81 123 95 81 45 45 80 115 
122 96 111 111 76 97 149 109 156 
105 144 133 132 158 166 129 95 125 
139 123 180 106 99 152 138 106 152 
94 122 131 131 122 145 153 138 157 
146 138 153 145 146 153 122 146 145 
122 111 146 110 106 138 146 110 138 
113 93 146 93 110 146 111 97 113 
111 113 146 89 141 156 147 128 156 
166 172 186 156 128 149 170 133 181 
132 166 164 168 164 166 168 166 201 
33 28 73 73 103 98 39 103 73 
73 28 39 82 104 114 83 82 114 
82 22 104 56 22 82 80 49 115 
69 49 80 51 73 98 51 33 73 
52 44 61 52 28 44 52 61 104 
151 53 154 66 53 151 53 88 154 
22 52 104 44 33 46 222 220 229 
236 231 240 224 235 231 232 208 231 
243 228 247 228 218 247 239 207 249 
239 249 241 241 238 239 217 240 242 
236 223 233 236 233 232 231 236 232 
233 223 234 226 202 213 226 215 202 
195 227 213 195 213 202 216 206 221 
188 206 216 185 221 206 185 191 221 
227 212 225 225 222 229 240 223 236 
224 188 216 191 218 228 191 182 218 
182 205 218 167 185 198 209 211 222 
204 214 203 225 175 222 183 196 195 
196 210 227 196 227 195 199 179 202 
215 199 202 192 198 206 206 198 185 
180 195 202 234 223 238 223 189 238 
211 203 220 203 214 220 217 219 240 
240 219 223 187 219 217 238 189 239 
239 189 207 189 184 207 205 208 232 
205 232 218 208 224 231 222 211 220 
214 215 230 58 109 143 143 149 119 
193 170 181 141 147 156 33 44 28 
220 214 230 249 207 217 
POINT_DATA 252
SCALARS k float
LOOKUP_TABLE default
0.302576 1.43534 0.158159 4.51861 -0.466307 -0.149743 0.0962183 0.127198 0.137573 
-0.0155445 0.144995 -0.174315 0.212382 0.819985 -0.249931 0.269971 0.11784 -0.0399033 
0.234157 0.163601 -0.0594304 0.0210609 -0.0721983 -0.216459 0.0687253 0.203244 -0.0778266 
-0.0999531 -0.114825 0.0342956 -0.204378 -0.309338 -0.450207 -0.181627 0.172189 0.109209 
-0.0916775 -0.321366 -0.101316 0.11092 0.237312 0.0367198 0.302221 -0.0660033 -0.0784988 
0.728395 -0.0946487 0.0435257 -0.0838505 -0.0830607 0.235598 0.012825 -0.0893499 0.596093 
0.0340723 0.348713 0.218192 0.019648 -0.0244265 0.0214115 -0.13732 -0.102837 0.00967669 
-0.276662 0.700256 -0.0693254 0.362142 -0.107071 2.58355 0.0181422 -0.637336 0.561813 
-0.0426156 0.0210916 0.0542983 -0.0523754 -0.149779 -0.13981 -0.132435 -0.0874349 0.654298 
-0.000283957 -0.118775 -0.123304 0.05362 0.0136715 0.209302 0.220125 0.395441 -0.0139618 
0.202541 0.145986 -0.0212111 0.282052 0.0136663 0.103058 0.0909328 -0.180615 0.0226426 
0.232408 0.871621 -0.0243967 0.00714499 -0.0725908 -0.0636194 -1.16947 0.0791543 -0.400515 
-0.109883 -0.602591 0.120331 -0.003353 0.0528694 -0.0120741 0.0776165 -0.0294104 0.57535 
0.148817 -0.0300826 0.241633 -0.223369 0.085333 -0.261812 0.285529 0.0870219 -0.296131 
0.576428 -0.0505811 0.712446 0.43029 -0.312921 -0.162361 -0.376783 0.047415 0.0428878 
-0.700619 -0.106634 -0.174928 0.12527 0.448586 0.313513 0.628976 0.285938 0.388982 
-0.46662 -0.113485 0.212496 0.589679 -1.36801 -0.929601 0.000333905 0.589738 0.0667773 
-0.192648 0.21899 0.274939 0.299626 0.0325068 0.242075 -0.76394 0.340682 -0.106927 
-0.393061 -0.260184 -0.975845 -0.292683 0.0155029 0.164064 -0.414388 -0.289848 0.289346 
0.18625 0.526106 -0.627954 0.387084 -0.510784 0.0720053 -0.103034 0.437687 0.230765 
0.574467 0.487198 0.346902 -0.0325333 0.397091 0.130447 0.233244 -0.230722 -0.265784 
0.46939 -0.203425 0.214028 -0.271303 0.398138 -0.458378 -0.354144 -0.895213 0.0111344 
-0.0489211 0.429451 -0.267057 -0.200302 0.540612 0.203022 -1.10593 0.0571657 -0.223873 
0.15799 -0.0401458 -0.0348707 -1.93003 0.376653 0.506669 0.110976 0.0139999 0.371432 
-0.218484 -0.295664 0.18817 -0.199534 0.48283 0.143568 0.146433 -0.470474 -0.264385 
-0.375809 0.454767 -0.847612 0.20201 0.352196 0.600237 -1.02259 -0.372188 0.116409 
0.196099 -0.283227 -0.298294 0.739554 0.375822 0.264777 -0.522509 0.242599 -0.178238 
0.262004 0.308536 0.327886 -0.0686054 0.681903 -0.12892 0.199088 0.396082 0.213577 

FIELD FieldData 7
h 1 252 float
-0.43214 2.83325 3.25467 2.48914 4.03487 1.74533 2.84229 -0.286534 1.05653 
0.570866 0.0111472 -1.24821 3.74352 0.627581 -0.404976 2.20526 1.56501 1.8038 
0.397266 5.1649 0.228495 2.52029 5.81704 1.00034 7.58829 0.30931 0.892177 
2.23089 6.16201 6.78759 12.936 0.0113728 2.69547 7.94131 10.0091 -0.293915 
3.53892 0.367513 3.9154 4.88026 6.98241 0.648111 8.86419 14.2567 2.92014 
-2.79498 7.14158 9.45328 1.28324 -0.725269 6.00302 2.35688 2.39445 10.2966 
7.08875 18.9491 12.8735 3.10503 3.69799 6.30411 7.55819 4.67024 -0.4735 
13.1191 3.46819 2.2467 1.57516 3.07285 1.64321 1.3665 7.7607 0.451663 
-0.69991 4.88603 10.5196 0.857553 -0.395108 1.64026 -0.260573 1.4782 -4.81327 
1.64233 10.6987 2.86075 3.96376 4.57781 9.79556 -1.33873 -0.996436 4.85365 
-0.886417 0.480375 5.745 7.68679 1.10018 -1.20746 17.2064 -0.560871 7.37722 
4.57047 -3.07572 0.976602 0.438146 10.7171 1.76924 4.08043 12.5404 0.689073 
-0.637639 3.88128 7.29938 -0.923748 1.23596 -0.655499 26.1418 -5.38244 -0.00718927 
6.16844 6.16146 2.51897 -1.57982 10.1334 5.06258 0.571232 1.10689 -5.49036 
17.2467 -2.80249 0.356375 -1.72453 -1.57652 -5.88198 0.0499542 5.10796 2.87912 
-4.70013 1.50559 12.8843 2.31808 2.41509 0.0415855 13.1062 36.0081 5.19222 
1.42145 -2.49873 -2.31949 0.150497 -6.5369 14.269 -0.336227 14.0472 14.4902 
-3.34638 -0.439746 14.2664 3.41564 1.19339 1.40479 -16.7304 -1.10879 -0.781049 
0.304374 1.57063 -2.57445 -0.992091 1.58018 6.39385 -7.95441 -1.81582 -0.245512 
0.718332 1.31208 3.36918 2.98888 0.0521814 1.76177 0.844478 6.73813 1.61508 
1.37366 0.937501 5.51569 -0.912875 1.4201 2.66089 3.21536 -5.94062 -6.41701 
2.29335 0.493946 7.33562 -7.56527 10.2971 -1.8012 -3.35129 -3.70488 3.38683 
-1.5204 6.21872 -2.01169 1.12203 8.04021 3.94309 1.0301 2.60814 -3.27503 
0.0897817 1.57377 -2.73352 2.00787 19.0269 -0.169474 -2.62212 5.00377 5.09671 
-4.23387 -2.33533 5.55379 -1.41686 0.293127 -0.528051 -2.50123 2.16474 -4.98395 
-3.30703 4.90868 -5.5191 8.09339 -1.20622 1.13847 -23.4387 2.2655 2.96141 
5.13068 -8.55904 0.0954164 -2.48368 5.75437 3.00398 -4.08544 14.3491 -4.71561 
4.25838 13.2678 7.56812 -2.8809 23.3844 -3.85917 -0.942516 3.05417 3.08968 

kmin 1 252 float
1.07572 7.86574 5.93006 4.85185 9.36996 3.55708 5.89611 0.32843 1.73405 
0.837762 0.838241 -0.84365 9.54908 3.21857 1.98327 5.06746 1.8613 3.41584 
1.0135 10.5535 0.90819 3.63935 11.7366 1.99898 14.2044 0.994373 2.31053 
4.84293 12.4797 11.7181 25.55 0.272013 6.33763 16.2385 18.5431 0.397996 
6.54786 1.40253 9.9448 9.36659 10.5444 2.10064 15.8563 28.4295 6.72578 
-1.25302 15.3447 18.3236 2.34015 -0.280276 11.1237 4.31566 5.43319 19.035 
12.3766 35.5374 25.9703 10.3485 8.09955 13.7739 16.5925 9.91582 0.369631 
29.5837 9.65141 4.54232 3.79653 6.1507 5.97611 3.06282 16.843 1.78719 
0.059336 9.45709 21.5061 2.07668 0.200696 3.42714 -0.198353 2.26645 -2.0646 
2.34005 21.4682 5.83818 8.68845 7.81701 19.7336 0.102513 -0.0803211 13.9369 
0.303559 1.08475 11.5366 13.487 2.22951 -0.510954 36.4832 -0.137265 14.5318 
7.80438 -1.10739 3.12382 1.46055 21.2797 3.6847 6.2065 23.3254 0.973622 
0.555056 10.0475 12.5012 -0.532265 2.20132 0.0234138 52.3786 -1.31317 1.23846 
11.097 13.0472 5.02172 0.444934 20.2627 11.9226 1.74427 2.94005 -2.10125 
20.3771 -0.176811 1.79411 -1.2039 2.7741 -1.77827 0.88328 6.77041 5.52904 
-1.59562 3.68577 25.0488 2.85119 3.55383 1.67928 16.7767 62.5766 11.591 
1.61668 -1.08897 -0.405092 2.42341 -4.76221 27.9964 1.80952 19.2988 26.1513 
-0.758389 1.06062 24.4748 9.43423 1.44847 2.68109 -3.82129 0.23473 1.72804 
1.5597 2.69738 -0.963748 -0.0782715 2.46241 11.041 -6.47303 -0.70624 0.406014 
2.6284 2.42501 11.4882 4.49967 1.44356 3.25336 1.17377 8.95366 2.28702 
2.50397 2.53285 6.37146 0.119381 2.21123 4.93593 3.73916 -5.32012 -6.17463 
3.44325 2.14346 8.98705 -4.94792 15.7873 -0.517464 -2.26515 -1.57797 4.73933 
-0.651463 8.02675 -1.49488 1.75954 18.1629 4.91645 1.3247 4.45643 -1.68033 
0.952273 2.30326 -2.22879 3.12085 33.2294 0.811564 -1.50948 6.40726 7.05147 
-1.98936 -0.527621 8.12908 0.950291 1.13191 0.983429 -2.05167 2.52554 -4.74404 
-1.66153 5.72172 -4.42209 11.146 -0.441411 3.12958 -9.71214 3.50234 3.54561 
6.60904 -5.56804 0.655316 -0.983081 6.94982 3.57286 -3.10163 20.6227 -3.88432 
6.74328 21.7508 11.3391 -1.45728 38.7668 -2.95825 -0.479432 4.86799 3.56984 

kmax 1 252 float
-1.94 -2.19923 0.579291 0.12642 -1.30022 -0.0664202 -0.211532 -0.901499 0.379004 
0.303969 -0.815946 -1.65277 -2.06205 -1.96341 -2.79323 -0.656933 1.26873 0.191755 
-0.21897 -0.223738 -0.4512 1.40124 -0.102506 0.00169404 0.972201 -0.375754 -0.526176 
-0.381154 -0.155719 1.85706 0.321913 -0.249267 -0.946686 -0.35591 1.47505 -0.985826 
0.529986 -0.667505 -2.114 0.393933 3.42046 -0.804418 1.87207 0.0838422 -0.885494 
-4.33694 -1.06153 0.583003 0.226326 -1.17026 0.882362 0.398108 -0.644299 1.55816 
1.8009 2.36069 -0.223226 -4.13845 -0.703562 -1.1657 -1.47615 -0.575344 -1.31663 
-3.34556 -2.71502 -0.0489143 -0.646206 -0.00500273 -2.68969 -0.329815 -1.32159 -0.883864 
-1.45916 0.314964 -0.466806 -0.36157 -0.990912 -0.146622 -0.322793 0.689958 -7.56194 
0.944609 -0.0708579 -0.116675 -0.760931 1.33861 -0.142523 -2.77997 -1.91255 -4.22959 
-2.07639 -0.124001 -0.0465795 1.88661 -0.0291598 -1.90397 -2.07047 -0.984477 0.222622 
1.33655 -5.04405 -1.17062 -0.584262 0.154536 -0.146215 1.95437 1.7555 0.404524 
-1.83033 -2.28498 2.0976 -1.31523 0.270603 -1.33441 -0.095004 -9.4517 -1.25284 
1.23993 -0.724261 0.0162205 -3.60458 0.00416767 -1.79746 -0.601802 -0.726273 -8.87948 
14.1163 -5.42817 -1.08136 -2.24517 -5.92715 -9.98568 -0.783372 3.44551 0.229205 
-7.80465 -0.674586 0.719752 1.78498 1.27635 -1.59611 9.43577 9.43965 -1.20652 
1.22622 -3.90848 -4.23388 -2.12241 -8.31158 0.541564 -2.48198 8.79559 2.82907 
-5.93438 -1.94011 4.05794 -2.60295 0.93831 0.128487 -29.6396 -2.45231 -3.29014 
-0.950952 0.443871 -4.18515 -1.90591 0.697952 1.74667 -9.43579 -2.9254 -0.897037 
-1.19173 0.199143 -4.74987 1.47809 -1.3392 0.270188 0.515189 4.5226 0.943133 
0.243354 -0.657843 4.65992 -1.94513 0.628967 0.385855 2.69155 -6.56112 -6.65938 
1.14345 -1.15557 5.68419 -10.1826 4.80679 -3.08493 -4.43743 -5.83179 2.03433 
-2.38935 4.4107 -2.52851 0.484517 -2.0825 2.96974 0.735503 0.759844 -4.86973 
-0.772709 0.844283 -3.23825 0.894897 4.82433 -1.15051 -3.73475 3.60029 3.14196 
-6.47838 -4.14303 2.97849 -3.78402 -0.545653 -2.03953 -2.95079 1.80394 -5.22386 
-4.95254 4.09564 -6.61611 5.04074 -1.97102 -0.852631 -37.1653 1.02866 2.3772 
3.65233 -11.55 -0.464483 -3.98428 4.55892 2.4351 -5.06925 8.07542 -5.5469 
1.77348 4.78485 3.79709 -4.30452 8.00205 -4.76009 -1.4056 1.24036 2.60953 

hks 16 252 double
1.7837243533 1.8020727272 1.8213461603 1.8415487779 1.8626670459 1.884668004 1.9074984632 1.9310852826 1.9553367506 
1.9801450018 2.0053893148 2.0309400624 2.056663042 2.0824238909 2.1080923042 2.1335458048 1.6141351789 1.6323190099 
1.6517392631 1.672392343 1.6942512854 1.7172649198 1.7413581604 1.7664334703 1.7923734464 1.819044387 1.8463006216 
1.8739893244 1.9019555011 1.9300468372 1.9581181218 1.9860350101 1.3435190835 1.3511641042 1.3602470863 1.3708194744 
1.3829139941 1.3965433276 1.4116993335 1.4283528969 1.4464544662 1.4659352964 1.4867093696 1.5086759173 1.5317224207 
1.5557279313 1.5805665285 1.606110725 3.2190685026 3.2528402748 3.2845163455 3.3139378665 3.3409827686 3.3655690811 
3.3876569212 3.4072490064 3.4243896283 3.4391621216 3.4516849612 3.4621067004 3.4706000368 3.4773553269 3.4825738898 
3.4864614242 1.2945924082 1.3036392778 1.3137459362 1.3249927997 1.3374450292 1.3511502804 1.3661370173 1.3824134999 
1.3999675224 1.4187669338 1.4387609221 1.4598819893 1.4820484976 1.505167629 1.5291385752 1.5538557667 1.6746438499 
1.653031039 1.6303233377 1.6065842328 1.5819124449 1.5564396936 1.5303267893 1.5037582475 1.4769357275 1.4500706805 
1.4233766386 1.3970615902 1.3713208623 1.3463308724 1.3222440326 1.2991849925 1.4114954497 1.4003896735 1.388703467 
1.3764554527 1.3636798487 1.3504252004 1.3367525777 1.3227333383 1.3084465792 1.2939764026 1.2794091257 1.2648305568 
1.2503234458 1.2359652041 1.2218259639 1.2079670298 1.4625944675 1.4449324624 1.4264379051 1.4072112508 1.3873760411 
1.3670764843 1.3464738284 1.3257416773 1.3050604873 1.2846115523 1.2645708306 1.2451029756 1.2263559115 1.2084562459 
1.191505741 1.1755789809 1.2339452281 1.2258016214 1.2176367184 1.2094654175 1.2013004784 1.193152644 1.1850308416 
1.1769424372 1.1688935156 1.1608891578 1.1529336942 1.1450309129 1.1371842134 1.1293966969 1.1216711961 1.1140102475 
1.3102007591 1.2997168528 1.2886628644 1.277102863 1.2651153646 1.2527909205 1.2402290577 1.2275347433 1.2148145863 
1.2021730056 1.1897085898 1.1775108543 1.1656575589 1.1542127012 1.143225243 1.1327285753 1.2258569563 1.2091615088 
1.1926972421 1.1765450884 1.1607938334 1.1455372276 1.1308704729 1.1168862991 1.1036708903 1.0912999331 1.0798350571 
1.0693208983 1.0597829712 1.0512264636 1.0436360021 1.0369763611 1.909036868 1.9416446106 1.9745416186 2.0076012489 
2.0406871572 2.0736559448 2.1063603748 2.1386530076 2.1703900623 2.2014352824 2.2316635768 2.2609642203 2.2892434295 
2.3164261818 2.3424571987 2.3673010827 2.222759128 2.2605116747 2.297488487 2.3335217418 2.3684532874 2.4021382393 
2.4344483031 2.4652746379 2.4945300939 2.5221506967 2.5480962984 2.5723503738 2.5949190002 2.6158291073 2.6351261309 
2.6528712304 2.1982053526 2.222702461 2.2476015209 2.2727671056 2.2980596239 2.3233376376 2.3484604236 2.3732906939 
2.3976973583 2.4215581974 2.444762307 2.467212186 2.4888253588 2.5095354555 2.5292927117 2.5480638863 1.6142297778 
1.624580708 1.6362256199 1.6492062988 1.6635469646 1.6792524883 1.6963071834 1.7146742872 1.7342962071 1.7550955639 
1.7769770098 1.7998297461 1.8235306153 1.8479476048 1.8729435717 1.8983799904 1.3112863621 1.3051017635 1.2987634629 
1.2922719919 1.2856262852 1.2788242666 1.271863492 1.2647417935 1.2574578742 1.2500118074 1.2424054073 1.2346424503 
1.2267287472 1.2186720771 1.2104820129 1.2021696764 1.3217811326 1.3060228008 1.2900002754 1.2738120397 1.2575658542 
1.2413752215 1.2253554397 1.2096194887 1.1942740057 1.1794155998 1.1651277185 1.1514782282 1.1385178114 1.1262792125 
1.1147773037 1.104009892 1.1760161726 1.1748376875 1.174114428 1.173882422 1.1741700017 1.1749978471 1.1763794634 
1.178322052 1.1808277042 1.183894821 1.1875196502 1.1916978242 1.1964257878 1.2017020202 1.2075279759 1.2139086954 
1.2406894953 1.2258234391 1.2108216665 1.1957903016 1.1808413683 1.1660890561 1.151645728 1.1376179118 1.1241025256 
1.1111835658 1.0989294503 1.0873911488 1.0766011726 1.0665734266 1.0573038658 1.0487718506 1.2660502065 1.2558703007 
1.2457775225 1.2357985335 1.225954237 1.2162597104 1.20672441 1.1973526183 1.1881440917 1.1790948514 1.1701980532 
1.1614448708 1.1528253326 1.1443290598 1.1359458694 1.1276662214 1.2269446478 1.2089862794 1.191469859 1.1744579108 
1.1580178445 1.1422198891 1.1271344809 1.1128292765 1.0993659995 1.0867973467 1.0751641772 1.0644931828 1.0547951951 
1.0460642326 1.0382773297 1.0313951322 1.263056086 1.2558205576 1.247905657 1.2393778655 1.2303132103 1.2207950275 
1.210911398 1.2007523843 1.1904072096 1.1799615312 1.1694949532 1.1590789046 1.1487749839 1.1386338316 1.1286945577 
1.1189847104 1.1237161881 1.1246434659 1.125305774 1.1257022092 1.1258301687 1.1256855206 1.1252628954 1.1245560636 
1.1235583663 1.1222631635 1.1206642731 1.1187563784 1.1165353921 1.1139987718 1.1111457912 1.1079777738 1.1836320322 
1.1818446574 1.1797708801 1.1773942744 1.1746988629 1.1716702044 1.168296473 1.16456944 1.1604852797 1.156045134 
1.1512553919 1.1461276674 1.1406784817 1.1349286832 1.1289026552 1.12262738 1.1670271108 1.1586640356 1.1503323091 
1.1420862478 1.1339771052 1.1260515717 1.1183504092 1.110907293 1.1037479219 1.0968894469 1.0903402469 1.0841000586 
1.0781604455 1.0725055697 1.0671132105 1.0619559626 1.2709550757 1.2513184963 1.2318601557 1.2127045384 1.1939784394 
1.1758070051 1.1583094711 1.1415948777 1.1257580571 1.1108761765 1.0970060736 1.084182557 1.0724177575 1.0617015322 
1.0520028392 1.0432719358 1.5161299402 1.5002398036 1.4831194637 1.4649112608 1.4457788593 1.42590359 1.4054799089 
1.3847101531 1.3637988352 1.3429467632 1.3223452916 1.3021710019 1.2825810783 1.2637095929 1.2456648426 1.2285278106 
1.445334366 1.4343743613 1.4224900172 1.4097388384 1.3961972725 1.3819589352 1.3671320269 1.351836051 1.3361980014 