# vtk DataFile Version 5.1
vtk output
ASCII
DATASET POLYDATA
POINTS 252 float
-0.641774 -0.13015 0.03222 -0.65027 -0.111563 0.023834 -0.046627 0.176037 0.003817 
-0.093116 0.174964 -0.001527 -0.622924 -0.069461 0.004091 -0.649067 -0.07635 -0.006118 
-0.081273 0.206831 -0.040271 -0.160444 0.181581 -0.005208 -0.09782 0.205284 -0.014996 
-0.152516 0.205036 -0.022343 -0.19555 0.202923 -0.030331 -0.145186 0.170952 -0.008246 
-0.201824 0.184374 -0.009264 -0.215531 0.162532 -0.013887 -0.263073 0.191796 -0.026355 
-0.318121 0.153517 -0.008576 -0.254863 0.170152 -0.00935 -0.323208 0.132758 -0.023446 
-0.276281 0.147504 -0.027648 -0.361575 0.125584 -0.016319 -0.410756 0.123812 -0.026129 
-0.40583 0.105368 -0.027838 -0.446346 0.078584 -0.042901 -0.455783 0.086402 -0.028516 
-0.565047 0.016064 -0.052095 -0.561109 0.042583 -0.037496 -0.599804 0.015912 -0.03154 
-0.598761 -0.009503 -0.022129 -0.628622 -0.035505 -0.017838 -0.26505 0.16794 -0.067999 
-0.274191 0.184026 -0.056251 -0.302269 0.14489 -0.053004 -0.378554 0.143251 -0.022078 
-0.317579 0.176742 -0.023875 -0.346692 0.137511 -0.063706 -0.314142 0.177913 -0.041632 
-0.369384 0.11751 -0.048652 -0.390357 0.152291 -0.038407 -0.370774 0.157696 -0.053635 
-0.424982 0.128972 -0.06939 -0.442615 0.125541 -0.049574 -0.46644 0.107915 -0.068438 
-0.464093 0.108277 -0.041871 -0.538068 0.083743 -0.067194 -0.514272 0.076778 -0.041228 
-0.520301 0.057235 -0.049356 -0.554935 0.060906 -0.044019 -0.570237 0.060738 -0.072873 
-0.596081 0.037786 -0.053045 -0.751791 -0.400601 0.146374 -0.747019 -0.429282 0.152383 
-0.737636 -0.401074 0.144716 -0.757282 -0.424431 0.140876 -0.718133 -0.365462 0.108776 
-0.7396 -0.357064 0.125038 -0.725735 -0.364871 0.132606 -0.670054 -0.24317 0.078665 
-0.68939 -0.311344 0.075804 -0.701209 -0.322802 0.109871 -0.725315 -0.329616 0.117385 
-0.71935 -0.297299 0.087354 -0.67029 -0.270311 0.070979 -0.704131 -0.302369 0.108967 
-0.70169 -0.266398 0.083184 -0.735319 -0.34896 0.106267 -0.65915 -0.244834 0.046363 
-0.704529 -0.273499 0.0605 0.094384 0.143208 0.027221 -0.651327 -0.177189 0.049282 
-0.667649 -0.171964 0.051429 -0.679315 -0.221271 0.071481 -0.685291 -0.1962 0.041299 
-0.675978 -0.214377 0.021442 -0.692315 -0.229604 0.044537 0.048312 0.15003 0.020545 
0.06548 0.162646 0.005135 0.042214 0.129427 0.011419 0.001772 0.153788 0.010327 
0.010333 0.177754 0.005163 -0.623196 -0.110641 -0.026448 -0.631801 -0.13657 0.014444 
-0.665228 -0.122922 0.011775 -0.671521 -0.148631 0.007339 -0.65276 -0.152912 -0.011232 
0.014158 0.1891 -0.013418 -0.054138 0.203629 -0.010663 -0.032548 0.204209 -0.028581 
-0.043696 0.163505 -0.009764 -0.122084 0.165786 -0.022038 -0.038734 0.162263 -0.034392 
-0.609956 -0.073226 -0.017765 -0.650968 -0.093248 -0.024939 -0.626095 -0.089263 -0.043467 
-0.090877 0.166464 -0.037442 -0.09906 0.192375 -0.05938 -0.074125 0.179943 -0.058872 
-0.140574 0.170915 -0.054454 -0.160785 0.182031 -0.065731 -0.189077 0.160638 -0.033608 
-0.599116 -0.007348 -0.074727 -0.586594 -0.021716 -0.04509 -0.63358 -0.039914 -0.046677 
-0.596123 -0.0381 -0.064238 -0.62109 -0.003865 -0.050639 -0.631812 -0.062321 -0.048283 
-0.14309 0.204639 -0.04761 -0.207414 0.198612 -0.048524 -0.225482 0.183457 -0.066323 
-0.220717 0.164353 -0.059816 -0.320586 0.164308 -0.062587 -0.384751 0.143251 -0.071947 
-0.387501 0.127091 -0.07626 -0.41251 0.106066 -0.073996 -0.442523 0.08238 -0.067544 
-0.504917 0.096428 -0.074893 -0.453405 0.09575 -0.082588 -0.494448 0.069241 -0.09214 
-0.515505 0.050968 -0.07189 -0.528072 0.072525 -0.090846 -0.526067 0.04714 -0.08913 
-0.569465 0.00666 -0.070363 -0.568254 0.028389 -0.088311 -0.594018 0.037207 -0.068979 
0.478428 0.052603 0.145571 0.428465 0.049415 0.146499 0.383357 0.075836 0.098272 
-0.731327 -0.375324 0.107813 0.420126 0.085496 0.139043 0.385561 0.089832 0.12978 
0.341004 0.107877 0.101183 0.36668 0.116 0.116931 0.419851 0.104773 0.116368 
0.365104 0.13696 0.087998 0.366976 0.133227 0.070737 0.340017 0.10026 0.07482 
0.316052 0.13316 0.096197 0.292171 0.11667 0.068187 0.304367 0.111243 0.039597 
-0.706726 -0.310834 0.067985 0.319464 0.152942 0.071042 0.267139 0.155673 0.054539 
0.29844 0.156207 0.041898 0.256639 0.126552 0.071609 0.236335 0.147684 0.018282 
0.25611 0.108853 0.041039 0.205887 0.108859 0.052655 0.22104 0.099691 0.03499 
0.255004 0.139871 0.071294 0.206488 0.13633 0.059789 0.180925 0.101075 0.018502 
0.167332 0.112923 0.042151 0.126547 0.110119 0.015077 -0.673666 -0.270741 0.040493 
0.214067 0.147698 0.026079 0.220607 0.122607 0.003746 0.18493 0.13805 -0.001073 
0.117387 0.123991 0.031585 0.152052 0.140152 0.034087 0.174181 0.147694 0.020726 
0.120547 0.152602 -0.010979 0.069912 0.128824 0.022452 0.078338 0.115819 -0.004443 
-0.641884 -0.175794 0.01761 -0.654524 -0.205134 0.013667 0.123027 0.153896 0.0095 
0.112201 0.13151 -0.032134 0.063312 0.151134 -0.031551 0.002867 0.144688 -0.015693 
0.053975 0.131903 -0.037155 0.036278 0.156854 -0.043497 0.012475 0.185186 -0.033246 
-0.025415 0.184631 -0.054052 0.000714 0.156514 -0.045907 0.487547 -0.015136 0.166645 
0.502692 -0.002107 0.16637 0.503209 0.018667 0.129123 0.468421 0.029175 0.164469 
0.475541 -0.008884 0.144669 0.492838 0.009843 0.111903 0.466395 0.066748 0.126982 
0.436266 0.037804 0.119367 0.470864 0.019765 0.108357 0.425841 0.094393 0.094559 
0.458817 0.053439 0.101418 0.415847 0.069307 0.079239 0.364898 0.11782 0.051594 
0.352628 0.10265 0.050874 0.310975 0.131795 0.025707 0.266978 0.120924 0.009375 
0.222887 0.105624 0.003293 0.129495 0.10855 -0.016423 0.17789 0.104416 -0.011933 
0.165141 0.117836 -0.019985 0.531839 -0.048457 0.142899 0.533596 -0.052538 0.105977 
0.518756 0.002858 0.144686 0.493427 -0.031758 0.119596 0.514851 -0.026612 0.109061 
0.514852 -0.048296 0.083723 0.475818 -0.002075 0.125533 0.515395 -0.061434 0.152638 
0.514328 -0.087514 0.124176 0.533255 -0.097809 0.100409 0.540426 -0.070457 0.106834 
0.498565 -0.0611 0.129039 0.502833 -0.061546 0.082127 0.529382 -0.115126 0.077946 
0.514341 -0.10216 0.079573 0.551556 -0.099527 0.067457 0.559471 -0.119344 0.006618 
0.518468 -0.10881 0.035055 0.517659 -0.086082 0.040304 0.545481 -0.107253 0.003036 
0.536723 -0.08121 0.040988 0.549465 -0.143315 0.035271 0.541684 -0.155422 0.00983 
0.568874 -0.14089 -0.004674 0.540264 -0.150177 -0.027043 0.534996 -0.115698 -0.00992 
0.547336 -0.152228 -0.063005 0.560531 -0.168288 -0.001602 0.576914 -0.213277 -0.069299 
0.585184 -0.189289 -0.058749 0.553823 -0.137868 -0.055673 0.570364 -0.155201 -0.058723 
0.597947 -0.224767 -0.078977 0.579838 -0.23098 -0.102907 0.560986 -0.18635 -0.080151 
0.569518 -0.211252 -0.12827 0.562002 -0.177216 -0.121192 0.579951 -0.175995 -0.119053 
0.584017 -0.180524 -0.158093 0.644455 -0.248885 -0.106051 0.664395 -0.256737 -0.117716 
0.667944 -0.226617 -0.127777 0.656084 -0.233571 -0.148469 0.630508 -0.266559 -0.113922 
0.608442 -0.258669 -0.092767 0.589084 -0.246995 -0.128545 0.691973 -0.204695 -0.142237 
0.690066 -0.1929 -0.131292 0.682413 -0.182524 -0.156875 0.608931 -0.23764 -0.107821 
0.644375 -0.204627 -0.125481 0.627819 -0.182295 -0.147371 0.600222 -0.217138 -0.123847 
0.612824 -0.23596 -0.16078 0.631589 -0.189333 -0.183123 0.648376 -0.184472 -0.147511 
0.615494 -0.169803 -0.184043 0.59272 -0.184675 -0.181646 0.570921 -0.187152 -0.165216 

POLYGONS 501 1500
OFFSETS vtktypeint64
0 3 6 9 12 15 18 21 24 
27 30 33 36 39 42 45 48 51 
54 57 60 63 66 69 72 75 78 
81 84 87 90 93 96 99 102 105 
108 111 114 117 120 123 126 129 132 
135 138 141 144 147 150 153 156 159 
162 165 168 171 174 177 180 183 186 
189 192 195 198 201 204 207 210 213 
216 219 222 225 228 231 234 237 240 
243 246 249 252 255 258 261 264 267 
270 273 276 279 282 285 288 291 294 
297 300 303 306 309 312 315 318 321 
324 327 330 333 336 339 342 345 348 
351 354 357 360 363 366 369 372 375 
378 381 384 387 390 393 396 399 402 
405 408 411 414 417 420 423 426 429 
432 435 438 441 444 447 450 453 456 
459 462 465 468 471 474 477 480 483 
486 489 492 495 498 501 504 507 510 
513 516 519 522 525 528 531 534 537 
540 543 546 549 552 555 558 561 564 
567 570 573 576 579 582 585 588 591 
594 597 600 603 606 609 612 615 618 
621 624 627 630 633 636 639 642 645 
648 651 654 657 660 663 666 669 672 
675 678 681 684 687 690 693 696 699 
702 705 708 711 714 717 720 723 726 
729 732 735 738 741 744 747 750 753 
756 759 762 765 768 771 774 777 780 
783 786 789 792 795 798 801 804 807 
810 813 816 819 822 825 828 831 834 
837 840 843 846 849 852 855 858 861 
864 867 870 873 876 879 882 885 888 
891 894 897 900 903 906 909 912 915 
918 921 924 927 930 933 936 939 942 
945 948 951 954 957 960 963 966 969 
972 975 978 981 984 987 990 993 996 
999 1002 1005 1008 1011 1014 1017 1020 1023 
1026 1029 1032 1035 1038 1041 1044 1047 1050 
1053 1056 1059 1062 1065 1068 1071 1074 1077 
1080 1083 1086 1089 1092 1095 1098 1101 1104 
1107 1110 1113 1116 1119 1122 1125 1128 1131 
1134 1137 1140 1143 1146 1149 1152 1155 1158 
1161 1164 1167 1170 1173 1176 1179 1182 1185 
1188 1191 1194 1197 1200 1203 1206 1209 1212 
1215 1218 1221 1224 1227 1230 1233 1236 1239 
1242 1245 1248 1251 1254 1257 1260 1263 1266 
1269 1272 1275 1278 1281 1284 1287 1290 1293 
1296 1299 1302 1305 1308 1311 1314 1317 1320 
1323 1326 1329 1332 1335 1338 1341 1344 1347 
1350 1353 1356 1359 1362 1365 1368 1371 1374 
1377 1380 1383 1386 1389 1392 1395 1398 1401 
1404 1407 1410 1413 1416 1419 1422 1425 1428 
1431 1434 1437 1440 1443 1446 1449 1452 1455 
1458 1461 1464 1467 1470 1473 1476 1479 1482 
1485 1488 1491 1494 1497 1500 
CONNECTIVITY vtktypeint64
30 29 109 34 36 111 109 31 34 
34 110 109 36 113 112 39 110 111 
41 39 115 22 45 117 47 43 118 
43 114 118 99 102 92 99 92 104 
101 99 104 105 97 106 107 106 97 
97 108 107 108 31 29 107 108 29 
29 31 109 34 111 110 36 112 111 
111 112 115 112 113 115 111 115 39 
22 117 113 116 117 119 115 113 116 
41 115 114 118 114 116 115 116 114 
117 45 24 116 119 121 118 121 47 
118 116 121 117 24 119 119 24 120 
119 120 121 13 16 18 11 7 12 
12 13 11 12 9 10 7 9 12 
7 8 9 8 105 9 28 4 27 
5 4 28 1 4 5 4 90 27 
7 11 8 11 3 8 8 2 85 
3 2 8 81 0 1 69 0 81 
81 1 5 0 90 4 1 0 4 
68 0 69 68 80 0 68 162 80 
163 162 65 68 56 162 160 67 74 
160 156 67 66 63 73 73 70 71 
66 73 72 63 70 73 56 61 65 
63 56 70 70 56 68 162 56 65 
156 150 157 157 150 148 66 60 63 
62 56 63 138 60 66 58 57 61 
60 62 63 59 62 60 64 60 138 
64 59 60 61 56 62 58 61 62 
147 135 139 54 59 64 55 58 62 
59 55 62 54 55 59 49 54 64 
55 53 58 55 51 53 156 157 67 
164 67 157 84 166 170 167 89 172 
143 154 153 149 151 190 138 66 152 
66 72 152 65 152 163 153 154 155 
158 148 153 158 153 155 151 150 156 
159 155 192 157 158 164 158 155 159 
164 158 159 151 156 161 156 160 161 
151 161 190 161 160 76 163 72 83 
162 163 83 163 152 72 165 159 192 
190 161 165 75 164 159 161 168 165 
165 168 166 159 165 166 75 159 166 
166 168 169 161 76 167 161 167 168 
168 167 172 168 172 169 170 166 169 
169 172 171 170 169 171 58 53 57 
64 52 49 51 50 126 49 50 51 
50 49 52 49 55 54 49 51 55 
103 26 48 48 47 122 48 46 47 
25 46 48 26 25 48 46 43 47 
15 14 33 107 29 30 106 107 30 
30 14 106 106 14 10 12 10 14 
10 105 106 28 26 103 28 27 26 
26 27 25 27 24 25 23 22 21 
19 32 20 19 21 36 21 19 20 
17 36 31 17 19 36 17 15 19 
18 17 31 16 14 15 15 18 16 
18 15 17 16 12 14 16 13 12 
10 9 105 113 117 116 232 236 233 
239 234 235 239 240 234 229 231 251 
228 227 229 230 245 231 222 245 230 
226 227 228 222 225 245 226 221 227 
225 242 245 86 170 171 174 176 173 
174 123 176 173 176 177 134 137 186 
137 144 188 172 89 95 172 95 171 
174 193 195 173 200 174 204 173 177 
174 195 123 195 175 123 199 177 180 
177 124 180 175 178 183 181 199 180 
183 178 181 123 175 179 175 183 179 
181 180 184 179 183 182 181 184 183 
182 183 184 184 180 125 182 184 185 
184 125 186 125 134 186 184 186 185 
185 186 187 186 137 187 187 137 188 
226 225 221 242 225 237 229 219 230 
219 224 230 219 223 224 227 219 229 
224 222 230 221 215 227 227 217 219 
224 216 222 215 217 227 221 225 222 
221 222 220 218 209 223 219 218 223 
219 217 218 218 212 209 209 224 223 
209 216 224 220 215 221 220 222 216 
218 211 212 210 218 217 215 210 217 
215 207 210 216 214 220 214 207 215 
214 215 220 210 211 218 213 212 211 
213 209 212 194 213 198 194 208 213 
208 209 213 208 216 209 208 214 216 
206 207 214 206 214 208 208 202 206 
198 211 205 213 211 198 205 211 210 
46 44 43 25 44 46 44 25 45 
42 41 114 43 42 114 43 44 42 
23 42 44 23 44 45 40 41 42 
40 39 41 42 20 40 23 20 42 
237 226 238 238 226 228 228 229 251 
234 240 243 236 232 237 232 242 237 
232 233 234 233 236 235 234 233 235 
235 236 246 232 234 243 242 232 243 
236 237 238 236 238 246 240 248 243 
243 248 244 241 248 240 239 235 241 
241 235 247 241 247 248 245 242 243 
235 246 247 245 243 244 245 244 231 
247 246 250 251 238 228 246 238 251 
250 246 251 244 248 249 248 247 249 
231 244 249 249 247 250 250 251 249 
231 249 251 39 38 110 37 38 39 
40 37 39 40 20 37 37 20 32 
38 109 110 109 38 35 35 38 37 
33 35 37 32 33 37 32 15 33 
35 30 109 35 14 30 33 14 35 
45 25 24 23 45 22 21 20 23 
113 36 21 113 21 22 31 36 34 
19 15 32 90 102 100 93 3 88 
87 3 93 87 93 89 2 3 87 
167 87 89 2 78 85 86 84 170 
85 84 86 78 84 85 162 83 79 
82 69 81 0 80 90 162 79 80 
2 77 78 77 2 87 167 77 87 
78 75 84 74 75 78 77 74 78 
76 77 167 76 74 77 75 166 84 
72 71 82 73 71 72 71 70 69 
72 82 83 82 71 69 70 68 69 
76 160 74 74 67 75 75 67 164 
3 11 88 102 99 121 120 102 121 
101 103 99 100 102 120 100 120 24 
98 18 108 96 108 97 96 98 108 
94 97 105 96 97 94 94 95 96 
135 147 142 126 64 138 147 139 140 
147 140 148 148 145 147 157 148 158 
129 130 135 53 138 57 135 132 139 
132 133 139 139 133 185 134 129 136 
129 135 136 134 136 137 139 185 141 
141 185 187 137 136 144 142 136 135 
136 142 144 145 144 142 61 57 152 
57 138 152 140 139 141 145 142 147 
140 141 143 148 140 153 141 188 143 
140 143 153 144 145 146 146 145 149 
149 145 150 150 145 148 149 150 151 
88 98 96 93 88 96 88 11 98 
6 94 105 93 96 95 89 93 95 
171 94 6 171 95 94 8 85 6 
86 171 6 91 81 5 83 82 91 
82 81 91 5 28 101 91 5 101 
102 79 92 104 91 101 92 91 104 
91 92 83 102 90 79 79 83 92 
90 80 79 101 28 103 27 90 100 
24 27 100 108 18 31 98 13 18 
11 13 98 105 8 6 85 86 6 
138 53 126 126 52 64 135 130 132 
131 133 132 131 182 133 182 185 133 
130 131 132 125 129 134 130 127 131 
128 130 129 128 127 130 125 128 129 
53 51 126 124 127 128 125 124 128 
124 125 180 131 179 182 131 127 179 
123 179 127 176 127 124 176 123 127 
177 176 124 99 103 122 121 122 47 
99 122 121 50 52 126 103 48 122 
210 207 205 207 204 205 203 208 194 
206 201 207 201 204 207 203 202 208 
202 201 206 202 200 201 200 202 203 
141 187 188 146 149 189 149 191 189 
192 155 154 191 149 190 174 200 193 
188 144 189 143 188 154 144 146 189 
188 189 154 189 191 192 191 190 192 
165 192 190 193 200 203 204 201 200 
204 200 173 193 203 194 193 194 195 
195 194 197 195 197 175 205 204 196 
196 204 177 197 194 198 198 205 196 
197 198 196 196 177 199 178 196 199 
196 178 197 178 199 181 175 197 178 
240 239 241 61 152 65 154 189 192 
237 225 226 229 230 231 
POINT_DATA 252
SCALARS k float
LOOKUP_TABLE default
-0.143337 0.271637 -0.144073 -0.0732107 -0.0996312 0.0244981 0.0893939 0.12793 0.00634718 
0.0405536 0.0332685 -0.184455 -0.0178645 -0.0346996 0.090323 0.136993 -0.0720577 0.0350171 
-0.182694 0.0834479 -0.0486134 -0.200767 0.129821 0.202108 -0.23491 -0.325937 0.125524 
-0.270322 -0.0135696 0.137584 0.0663214 -0.203292 0.0470154 0.133327 -0.096451 0.0134188 
-0.108041 0.116544 0.0405273 0.0397846 0.0513068 -0.22211 -0.0985113 0.175765 -0.275383 
-0.325136 0.0985298 0.182683 0.205129 0.499723 3.36996 -0.0281684 1.95156 0.0304098 
0.070192 -0.0435609 0.0436358 -0.00437474 0.0600919 0.0425021 0.0705821 0.0424638 0.0205425 
-0.110117 -0.00501388 0.0774603 -0.0634747 -0.0295743 -0.0177162 0.0838202 -0.0353787 0.0492543 
-0.0263958 -0.052659 -0.0215162 -0.285085 0.155749 -0.0731108 0.0106131 -0.00602329 -0.00766909 
-0.0284557 0.0106369 -0.0936523 0.10402 0.151973 0.172413 -0.164337 -0.00422317 -0.107992 
-0.0495815 0.0186024 0.0481181 -0.0912774 0.00550976 -0.0282631 -0.0872402 0.0844318 -0.0412618 
0.108768 -0.106517 0.0845585 0.0217344 0.135109 0.0586177 0.0663489 0.0270362 0.0720842 
-0.0589929 -0.236086 0.100698 0.0829129 0.0344957 -0.00703967 0.140249 -0.169997 0.177805 
-0.163044 0.270005 -0.0117641 -0.267031 0.119302 0.235497 0.25722 -0.00550425 -0.0938876 
-0.0351649 0.084157 0.0231136 -0.122755 0.0349098 0.174918 0.121594 0.145104 -0.119335 
-0.0357561 -0.227154 -0.261974 0.0138866 0.137117 0.122523 0.333659 -0.148138 0.23458 
-0.190636 0.162374 0.199415 -0.0727271 0.110156 0.0312241 -0.0398328 0.0157171 0.309344 
-0.300257 -0.220946 0.00150347 -0.0836368 -0.248236 -0.106586 0.0619529 0.085706 0.00613046 
-0.116826 0.0557492 -0.0428693 0.0530249 -0.326016 -0.0356535 0.150768 0.111408 0.107596 
0.188359 -0.0959917 0.370019 0.390668 0.034638 0.140457 -0.227919 -0.388795 0.0591841 
-0.134448 -0.148861 0.0508574 -0.0184395 -0.165186 0.0730346 -0.137194 0.0963755 0.114964 
0.0336524 0.157406 0.235676 0.0956667 0.348083 -0.104532 0.340214 -0.598709 -0.810243 
-0.117695 -0.307383 0.608988 0.315994 0.0965777 -0.0396695 -0.0159995 0.0225269 -0.096735 
0.00233382 -0.02138 -0.0961189 0.0272 -0.0385675 0.167315 -0.0132856 -0.00430328 0.0374135 
-0.0199589 -0.0095275 -0.24652 -0.505293 0.021916 -0.308601 -0.296798 0.635016 -0.332419 
-0.407506 -0.0582502 -0.0339172 0.0743582 -0.232241 -0.18462 -0.78325 0.0685767 1.74358 
-0.933692 -0.0403774 0.502711 0.493535 0.418775 1.02689 1.67638 1.35987 -0.288959 
-0.0825874 0.0930953 -0.0941871 0.370752 -0.0321082 -0.305071 1.56426 0.46417 0.798683 

FIELD FieldData 7
h 1 252 float
-0.542139 3.46431 5.85426 5.00674 0.639501 6.27237 26.7569 4.12086 3.50735 
7.16625 14.2055 5.24551 4.43576 0.220455 17.7521 3.50217 2.17446 8.08945 
8.13922 -1.4299 2.57002 6.52714 4.62529 1.84495 -1.78258 -0.0674433 0.447129 
-2.02112 -0.0218281 -1.37675 9.3462 1.13265 4.35891 15.4017 -0.742006 15.1812 
1.44629 20.7593 14.9247 12.0057 7.92534 11.5998 2.371 0.760993 0.801609 
13.5015 1.12666 20.1663 -1.78465 37.8592 18.3982 11.9641 22.0818 24.6086 
39.2375 30.5691 15.9076 31.8493 15.5239 42.4164 29.1287 22.0457 48.4785 
22.7676 27.2537 25.0925 21.5493 11.7749 22.7638 8.70622 19.9994 20.7206 
14.0887 14.3366 14.0301 11.1724 17.7338 19.0482 8.98659 0.548304 12.5341 
10.5878 28.2544 3.83592 14.5352 5.78143 22.6231 5.98154 11.9176 3.40818 
11.2557 29.9331 2.07716 6.14497 1.42249 -0.269378 0.822548 -0.789938 12.5797 
0.7701 1.95823 25.2688 -0.260965 15.9452 6.98251 16.417 9.42466 1.936 
-0.0209507 3.6411 7.60686 -0.756542 -2.66637 -2.15712 23.2991 2.29579 -1.52907 
-0.814375 2.94769 -0.547712 0.479232 -2.38302 14.0613 2.41504 -1.60779 -0.995411 
27.9024 2.43285 -1.20074 -0.736385 2.21306 8.46189 5.89295 7.19888 -1.26439 
2.82502 -1.62918 5.1434 28.5177 11.9699 10.8588 11.6039 2.60989 5.46949 
4.92055 19.2754 11.2406 3.23971 7.0877 8.25418 11.9044 8.76817 32.8181 
10.5119 4.42985 4.60175 11.0273 8.41495 11.2545 9.3193 11.2183 16.2493 
8.62217 2.50497 10.1942 17.5987 4.74872 7.90989 11.0963 10.9318 11.3742 
11.6194 2.72834 -0.740854 8.31953 0.645964 4.17466 -1.93663 -2.96434 1.58361 
-1.16615 -4.26884 1.43146 0.726946 -7.44589 2.10751 -2.04685 -1.28946 6.91292 
4.15955 16.1798 17.0836 2.48996 2.69043 0.156485 0.996979 -1.67231 0.0501271 
-0.956934 -0.8186 8.92309 -0.678055 -5.7101 4.75822 -1.83382 -2.36347 7.49132 
-0.707793 4.47469 3.2246 -0.962575 7.01087 3.87726 1.21773 3.4807 -0.0695287 
5.93137 0.94272 5.97668 9.77377 2.56624 8.05286 6.66622 -3.67678 5.31325 
-3.76541 7.71535 1.21476 7.72176 19.0305 4.43262 -0.622024 -4.48433 21.1619 
-1.29422 6.8324 11.2316 22.987 11.9076 3.6858 0.772885 6.81005 0.577634 
-4.59614 -4.75022 -8.75468 15.1179 8.96469 0.511042 -4.34094 7.30941 0.625939 

kmin 1 252 float
3.01996 6.3704 11.6868 11.3202 3.52231 11.2666 51.8435 7.38379 5.8311 
12.7087 26.7362 11.6176 7.76577 1.92361 34.0228 6.00213 3.8121 17.4327 
17.7587 -0.737455 4.28641 14.7608 10.5729 4.21351 0.000958299 1.72913 2.18461 
0.533141 2.17433 0.159773 17.3719 3.64062 7.5174 29.5503 -0.461366 29.308 
4.49447 40.3198 28.6715 22.5616 14.5175 21.4302 3.64649 2.20043 0.880813 
30.4708 2.27156 37.0181 2.22045 76.4254 36.4259 23.3559 45.6413 48.3884 
78.8454 60.6794 31.8741 63.0413 30.6766 85.0317 58.2014 43.7484 96.9338 
45.7182 54.5922 50.2076 42.9514 24.2195 45.8081 17.1452 39.8373 41.1667 
27.7305 28.5784 28.5697 22.9185 35.5433 38.4408 17.7969 3.60795 26.5661 
20.4677 56.2419 6.94999 28.6911 10.5425 43.7889 13.3707 25.6302 8.18547 
24.28 59.0075 3.49067 13.7946 1.70563 0.583004 3.07035 1.4568 26.8556 
3.40345 6.91063 49.3052 1.68603 28.5392 12.2867 31.0539 17.2328 2.95288 
1.2983 6.62929 14.5142 -0.0717592 -1.05264 -0.779942 44.0399 4.20482 0.636884 
0.463643 5.12666 0.970633 3.49829 2.20572 25.0064 4.64678 -0.155933 1.43305 
55.3962 3.96258 0.0980306 0.900248 4.24098 12.9794 8.52283 11.2087 1.18694 
5.67747 -0.141846 12.6946 56.8323 21.5448 20.4244 20.9995 6.9177 9.4137 
11.1656 39.1258 22.6211 6.23412 14.2227 15.8721 23.7054 16.7782 65.0306 
20.3996 8.15625 8.8308 21.7299 17.6496 22.8476 18.8412 21.9856 32.1977 
18.3296 5.6458 21.0516 33.8942 9.4248 16.2588 21.7548 21.0669 21.9145 
21.92 6.12728 0.824215 9.87583 2.54325 9.20078 -0.22423 0.562355 3.84455 
1.29789 -2.95513 2.95943 2.62017 -2.2442 2.6756 -0.311984 1.47425 13.0575 
8.45118 31.0849 33.3334 4.39331 5.23763 1.70138 3.42223 -0.278312 1.21164 
-0.291634 2.02331 13.9806 0.383019 2.39558 9.43769 0.147259 0.141802 13.1796 
1.04374 9.91377 7.78142 0.976076 16.3323 8.97749 3.40913 5.56812 1.23106 
13.2288 1.5656 13.1414 19.0675 4.97966 15.0165 15.5248 -1.09594 12.8912 
-1.43865 15.0582 2.21232 15.1483 38.0754 11.2333 8.54963 6.08783 25.7908 
1.45836 13.3971 18.8774 46.7148 21.6037 13.7548 7.49375 16.0957 9.60472 
23.5383 16.6456 -5.02109 20.6773 15.3464 8.56428 -2.00256 12.7611 2.57017 

kmax 1 252 float
-4.10424 0.558227 0.021698 -1.30673 -2.24331 1.27817 1.67024 0.857932 1.18361 
1.6238 1.67475 -1.12657 1.10576 -1.4827 1.48145 1.00222 0.536821 -1.25381 
-1.48025 -2.12235 0.853629 -1.70652 -1.32228 -0.523605 -3.56612 -1.86401 -1.29035 
-4.57538 -2.21799 -2.91327 1.32051 -1.37533 1.20042 1.25303 -1.02265 1.05446 
-1.6019 1.19881 1.178 1.44992 1.33318 1.7694 1.09551 -0.678441 0.722405 
-3.46782 -0.0182408 3.31445 -5.78975 -0.706984 0.370584 0.572258 -1.47767 0.828943 
-0.370356 0.458831 -0.0589444 0.657193 0.37109 -0.198896 0.0559179 0.343093 0.0231509 
-0.183089 -0.0849286 -0.0224641 0.147122 -0.669712 -0.280555 0.267271 0.16157 0.274383 
0.446993 0.0947806 -0.509497 -0.573716 -0.0757201 -0.344535 0.176271 -2.51134 -1.49791 
0.707869 0.267032 0.721845 0.379238 1.0204 1.45741 -1.40763 -1.79499 -1.36911 
-1.76854 0.858656 0.66366 -1.50466 1.13936 -1.12176 -1.42526 -3.03667 -1.69609 
-1.86325 -2.99418 1.23229 -2.20796 3.3511 1.6783 1.78021 1.61648 0.919127 
-1.34021 0.652917 0.69951 -1.44132 -4.28011 -3.53429 2.55833 0.386766 -3.69502 
-2.09239 0.768716 -2.06606 -2.53982 -6.97176 3.11608 0.183293 -3.05965 -3.42387 
0.408548 0.903122 -2.4995 -2.37302 0.185133 3.94442 3.26308 3.18903 -3.71573 
-0.027439 -3.11651 -2.4078 0.203063 2.39508 1.29322 2.20837 -1.69791 1.52528 
-1.32453 -0.57494 -0.139915 0.245291 -0.0472942 0.636243 0.103359 0.758143 0.605657 
0.624112 0.703451 0.372693 0.324761 -0.819742 -0.338549 -0.202643 0.451022 0.30095 
-1.08526 -0.635868 -0.66331 1.30325 0.0726395 -0.438994 0.437732 0.796624 0.833851 
1.31871 -0.670602 -2.30592 6.76322 -1.25132 -0.851454 -3.64903 -6.49103 -0.677336 
-3.63019 -5.58255 -0.0965001 -1.16628 -12.6476 1.53942 -3.78172 -4.05318 0.768377 
-0.132066 1.27467 0.833836 0.586614 0.14324 -1.38841 -1.42828 -3.0663 -1.11139 
-1.62223 -3.66051 3.86562 -1.73913 -13.8158 0.0787475 -3.81491 -4.86873 1.80304 
-2.45933 -0.964398 -1.33223 -2.90123 -2.31051 -1.22298 -0.973676 1.39329 -1.37011 
-1.36607 0.319844 -1.18803 0.480027 0.152825 1.08921 -2.1924 -6.25763 -2.26473 
-6.09216 0.372543 0.217205 0.295192 -0.014327 -2.36803 -9.79367 -15.0565 16.5331 
-4.0468 0.267719 3.58594 -0.740903 2.21146 -6.38316 -5.94798 -2.47557 -8.44945 
-32.7306 -26.146 -12.4883 9.55854 2.58301 -7.5422 -6.67933 1.85771 -1.31829 

hks 16 252 double
2.9054116451 2.9129374573 2.9200049063 2.9266309365 2.9328330482 2.9386300278 2.9440431838 2.9490980101 2.9538261621 
2.9582675955 2.962472702 2.9665042694 2.9704391072 2.9743691953 2.978402247 2.9826616154 3.3759591609 3.3584076108 
3.3408140201 3.3232780973 3.3058913945 3.2887365669 3.2718871917 3.2554081616 3.2393566359 3.2237835051 3.208735291 
3.194256378 3.1803914513 3.1671880002 3.1546987415 3.1429838207 2.5735662832 2.5616401698 2.5501185759 2.5390422548 
2.5284415618 2.5183345219 2.5087254109 2.4996039895 2.490945476 2.4827112771 2.4748504278 2.4673016282 2.4599957171 
2.4528583882 2.4458129524 2.4387829539 2.6907977889 2.677330454 2.6636894042 2.6499090053 2.6360311717 2.6221044257 
2.6081822687 2.5943209712 2.5805769481 2.5670039347 2.5536501944 2.5405559853 2.5277514801 2.5152552822 2.5030736214 
2.4912002435 3.128979077 3.1213287082 3.1133657626 3.1051457684 3.096723083 3.0881491975 3.079471514 3.0707326841 
3.0619705476 3.0532186632 3.0445073772 3.0358653382 3.0273213393 3.0189063535 3.0106556273 3.0026107021 3.3316465809 
3.3221906755 3.3117678595 3.3004619474 3.288366054 3.2755807799 3.262212372 3.2483709316 3.2341687521 3.2197188607 
3.2051338379 3.1905249716 3.1760017886 3.1616719803 3.1476417111 3.1340162719 2.6927215241 2.6776372003 2.6625742602 
2.6475357351 2.6325357326 2.6175989374 2.6027592591 2.5880577194 2.5735397344 2.5592520043 2.5452392526 2.5315410661 
2.5181890702 2.5052046343 2.492597249 2.4803636523 3.1303702628 3.0984119214 3.0657181216 3.0324839399 2.9989211218 
2.9652523655 2.9317046946 2.8985022832 2.865859167 2.8339722926 2.8030153386 2.7731336765 2.7444407399 2.7170159524 
2.6909042371 2.6661170178 2.5681143481 2.5646853806 2.5605281882 2.5556762117 2.5501731768 2.544071907 2.5374326242 
2.5303208009 2.5228046718 2.5149525567 2.5068301633 2.4984980514 2.4900094222 2.4814083699 2.472728684 2.4639932456 
3.2384165677 3.1976169099 3.156317978 3.1147924809 3.0733213724 3.0321865199 2.9916628049 2.9520100829 2.9134654806 
2.876236503 2.8404953777 2.8063749647 2.7739664395 2.7433188123 2.7144402109 2.6873007307 3.001345335 2.9769038446 
2.9517187212 2.9259451082 2.8997598867 2.8733547483 2.8469283778 2.8206782711 2.794792736 2.7694435965 2.7447800465 
2.7209239764 2.6979669619 2.6759689563 2.6549585942 2.6349349078 2.7428378439 2.738190902 2.7319476447 2.7241924158 
2.7150335111 2.7045999643 2.6930375226 2.6805039784 2.6671640723 2.6531842164 2.638727303 2.623947855 2.6089877484 
2.5939726911 2.5790095836 2.5641848236 2.9414157183 2.9278248559 2.9125725428 2.8958229445 2.8777610162 2.8585877547 
2.8385147174 2.8177580476 2.7965322925 2.7750443296 2.7534877138 2.732037727 2.7108473615 2.6900443899 2.6697295997 
2.6499761868 3.0229044043 2.9964606727 2.9695262015 2.9422504394 2.9147956402 2.8873315381 2.8600294883 2.8330564287 
2.8065690321 2.7807084012 2.7555956068 2.7313282952 2.7079784965 2.6855916738 2.6641869585 2.6437584458 2.6027670209 
2.6035584648 2.6038425729 2.6035666801 2.6026897284 2.6011829503 2.5990299746 2.5962263521 2.5927785382 2.5887024069 
2.5840214054 2.5787644771 2.5729638937 2.5666531349 2.5598649374 2.5526296109 2.6682713808 2.6548922065 2.6416353193 
2.6286304502 2.6159960208 2.6038339239 2.5922251462 2.5812265169 2.570868779 2.5611560722 2.5520668016 2.5435557597 
2.5355572836 2.5279891633 2.5207569896 2.5137586277 2.8978746159 2.8764060764 2.8552588416 2.8344425049 2.8139749239 
2.7938814868 2.7741934402 2.7549454531 2.7361726636 2.7179075068 2.7001766272 2.6829981584 2.6663795962 2.6503164165 
2.6347915027 2.6197753678 2.5914134148 2.5760299743 2.5619024033 2.5490198701 2.5373557167 2.5268660171 2.5174889538 
2.5091451275 2.5017388259 2.4951601749 2.4892880159 2.4839932864 2.4791426518 2.4746021315 2.4702404892 2.4659321998 
2.7040413515 2.6866573723 2.6694562342 2.6525534936 2.6360618937 2.6200866611 2.6047208638 2.5900411661 2.5761042976 
2.5629445025 2.5505721532 2.5389736125 2.5281123227 2.5179309951 2.5083546952 2.499294555 2.5039364473 2.5009149589 
2.4984010793 2.4963638532 2.4947546072 2.4935084269 2.492546412 2.491778573 2.4911071768 2.490430318 2.4896454794 
2.488652861 2.4873582867 2.4856755503 2.4835281179 2.4808501656 2.5080047684 2.5144237964 2.5206076438 2.5264811402 
2.5319618801 2.5369630303 2.5413964421 2.5451758639 2.548220041 2.550455508 2.5518189083 2.5522587245 2.5517363533 
2.5502265129 2.547717021 2.5442080169 2.668806516 2.664197141 2.659721829 2.6553190508 2.6509240679 2.6464706194 
2.6418925369 2.6371252332 2.6321070301 2.6267803001 2.6210924091 2.6149964556 2.6084518067 2.6014244356 2.5938870638 
2.5858191177 3.1716059781 3.1374128094 3.1036062647 3.0703716454 3.0378783387 3.0062742516 2.9756811911 2.946191472 
2.9178659515 2.8907335794 2.8647924427 2.8400121707 2.8163374756 2.7936925352 2.7719858878 2.751115502 2.7736495652 
2.7671955819 2.7608081845 2.7544731305 2.7481595662 2.7418215996 2.7354007959 2.7288294131 2.7220341369 2.7149400343 
2.707474437 2.6995704819 2.6911700831 2.682226171 2.6727041061 2.6625822529 2.6591181144 2.6548371506 2.6507841189 
2.6469902767 2.6434674103 2.640208789 2.6371908971 2.6343757993 2.6317139684 2.6291473891 2.6266127567 2.6240446001 
2.6213781851 2.6185520856 2.6155103443 2.6122041843 2.6412359708 2.6528448702 2.663922041 2.6743410295 2.6839741121 
2.6926970327 2.7003938757 2.7069617408 2.712314892 2.7163880903 2.7191388949 2.7205488022 2.7206231931 2.7193901559 
2.7168983347 2.7132140187 3.0305074099 3.0229514407 3.0156138388 3.008438391 3.0013547664 2.9942828525 2.9871375761 
2.9798338696 2.9722914344 2.9644389845 2.9562177114 2.9475837911 2.9385098512 2.9289854061 2.9190163611 2.9086237505 
2.6671819969 2.6729487811 2.678894942 2.6849400094 2.6909934723 2.6969576554 2.702731124 2.7082124219 2.7133039096 
2.7179154682 2.7219678431 2.7253954433 2.7281484647 2.7301942694 2.7315180212 2.7321226352 3.1364906582 3.1343421454 