# vtk DataFile Version 5.1
vtk output
ASCII
DATASET POLYDATA
POINTS 252 float
0.354067 0.078288 0.217215 0.404488 0.186943 0.142829 0.367543 0.219221 0.174552 
0.302411 -0.089389 0.238514 0.288764 0.125076 0.216322 0.294223 0.060916 0.252531 
0.251017 0.000303 0.247052 0.343242 0.047386 0.165319 0.25115 -0.105226 0.246074 
0.388768 0.151315 0.116546 0.400616 0.247082 0.083424 0.196244 0.018029 0.263252 
0.126474 0.004034 0.290712 0.322455 -0.069591 0.194444 0.229346 0.06217 0.205144 
0.337187 0.235786 0.15114 0.284095 0.073023 0.14704 0.31205 0.171963 0.137426 
0.295606 -0.133791 0.149058 0.194292 -0.18608 0.218356 0.428848 0.159345 -0.008134 
0.346779 0.148751 0.082282 0.321303 0.051499 0.137078 0.197251 0.122386 0.248605 
0.066058 -0.036432 0.26309 0.270988 -0.108227 0.138992 0.136483 -0.10949 0.259988 
0.228579 -0.223136 0.207147 0.144848 0.166301 0.204357 0.286416 -0.171819 0.198953 
0.239771 -0.072624 0.177872 0.225461 0.0615 0.158365 0.211543 -0.107337 0.226057 
0.225756 -0.294079 0.158101 0.420928 0.255884 -0.062782 0.187075 -0.174635 0.161511 
0.370482 0.221374 -0.037331 0.088181 -0.195244 0.215678 0.173583 -0.000817 0.172945 
0.081738 -0.135398 0.259898 0.104434 0.0842 0.229716 0.15443 -0.141514 0.199654 
0.017548 0.094149 0.270407 0.156926 0.071438 0.16668 0.397299 0.159686 -0.029294 
0.250814 -0.254427 0.119629 0.067317 0.081678 0.232769 0.19942 0.233064 0.127936 
0.25734 0.138543 0.090676 0.038616 0.218587 0.207266 0.249692 0.198886 0.137098 
0.108167 0.016856 0.202625 0.22636 0.126658 0.089031 -0.063576 -0.004037 0.285587 
0.078079 -0.07931 0.17514 0.288914 0.177119 0.000309 0.112838 -0.205724 0.138398 
0.149978 0.219537 0.116085 0.012741 -0.128213 0.219259 -0.011241 -0.053925 0.282036 
0.378059 0.266815 -0.003072 0.005164 -0.086216 0.246606 0.170784 -0.234909 0.112112 
0.15696 -0.106125 0.163017 0.152014 0.170171 0.105474 0.458971 0.22 -0.040575 
0.158802 -0.272254 0.179284 0.067979 0.325435 0.112379 -0.012805 0.140308 0.24335 
0.396631 0.077934 -0.105246 0.102639 0.243498 0.148603 0.438806 0.035996 -0.152361 
0.000138 0.250394 0.148549 0.146242 -0.252359 0.160902 0.090202 0.155455 0.137854 
0.164698 0.210562 0.017445 0.215 0.141745 0.006917 0.194288 0.234799 0.020741 
-0.065171 -0.020456 0.214899 0.408765 0.207204 -0.124473 -0.017716 0.119199 0.193428 
0.451579 0.099311 -0.144058 -0.000737 -0.058923 0.182222 0.07038 -0.129409 0.138722 
0.171256 -0.34531 0.08507 0.063245 -0.239118 0.00547 0.049728 0.105828 0.122991 
0.004598 0.069626 0.147973 0.005184 -0.142264 0.150704 0.372049 0.127654 -0.126747 
0.254096 0.236467 -0.009521 0.224641 0.114233 -0.093326 0.301193 0.137781 -0.104979 
0.380856 0.027899 -0.168443 0.379303 0.210728 -0.106216 0.228335 -0.297615 -0.033351 
-0.023427 -0.176729 0.142429 0.37581 0.10929 -0.20689 0.044703 0.202219 0.063289 
0.272196 0.206329 -0.099349 -0.098286 -0.079581 0.282891 0.427818 -0.057424 -0.168132 
0.233722 -0.239276 0.084251 0.006209 0.207964 0.119109 0.437059 0.011458 -0.215917 
0.029614 -0.215159 0.174535 0.185623 -0.377933 -0.013757 -0.125055 -0.089013 0.199566 
0.125303 -0.334186 0.022391 -0.125303 -0.160008 0.241744 0.018059 0.279213 0.004546 
0.179256 -0.27816 -0.014177 -0.041966 -0.054508 0.168821 -0.179224 -0.136916 0.189661 
0.424551 0.107897 -0.19508 0.291536 0.12773 -0.039931 0.13409 -0.370477 -0.010284 
0.097679 0.273674 0.010967 0.383735 -0.268779 -0.195144 0.398739 -0.105072 -0.170461 
0.225125 -0.337741 0.011813 0.416414 -0.173753 -0.18658 0.415117 -0.159619 -0.224599 
0.292002 0.03344 -0.191342 -0.081663 -0.069491 0.16098 0.364948 -0.099742 -0.220579 
-0.014922 -0.16546 0.020637 0.091928 0.353795 -0.028251 -0.078508 -0.172412 0.192389 
0.017648 0.327838 0.119235 0.392382 -0.011688 -0.235794 0.236867 0.166071 -0.18057 
0.268583 0.05932 -0.139728 0.016482 -0.271237 0.021588 0.271815 0.121077 -0.216104 
0.389793 -0.163967 -0.235065 0.060047 0.246463 -0.02093 0.18467 0.207242 -0.083115 
0.189458 0.145938 -0.130056 -0.009805 0.335879 0.016896 0.019749 0.376753 -0.017286 
0.393957 -0.32832 -0.226766 0.187398 0.145292 -0.187907 0.16386 -0.246985 -0.13287 
-0.130941 -0.132111 0.101298 0.372283 -0.243523 -0.236352 0.26011 -0.023113 -0.179742 
0.368647 -0.208092 -0.214386 -0.006149 0.358024 -0.072746 0.221972 -0.226723 -0.143787 
0.253703 -0.187941 -0.182744 0.281453 -0.082523 -0.21044 0.213814 -0.309299 -0.168181 
-0.035678 -0.245486 0.045459 0.079086 -0.183788 0.004085 0.081412 0.198475 -0.140046 
0.082262 0.271288 -0.180907 0.238692 -0.134064 -0.190043 -0.079704 -0.20226 -0.057411 
-0.188371 -0.190234 0.092774 0.123917 -0.311917 -0.104078 0.040809 -0.161254 -0.048309 
0.249544 -0.040642 -0.289933 0.170896 0.061763 -0.233334 0.221478 0.093806 -0.245598 
0.27222 -0.132447 -0.248768 -0.192335 -0.090357 0.114325 -0.015591 0.285131 -0.090089 
-0.292926 -0.175592 0.050942 0.050893 -0.184512 -0.115153 0.19704 -0.024929 -0.204506 
0.180138 -0.314256 -0.191964 -0.035314 0.277117 -0.194424 0.007043 -0.243248 -0.108181 
0.141478 -0.3441 -0.127365 0.052485 0.055587 -0.166148 0.088736 0.091237 -0.218348 
0.182312 -0.124836 -0.211192 -0.03463 -0.240572 -0.116553 0.226218 -0.195464 -0.272616 
0.040491 0.202242 -0.132173 0.159975 -0.249892 -0.242918 -0.025059 0.225525 -0.169394 
0.010948 0.107554 -0.176939 -0.254515 -0.128592 0.012187 0.136374 -0.240806 -0.176076 
0.06322 0.003673 -0.192702 0.166147 -0.063059 -0.277243 -0.271699 -0.138737 0.042887 
-0.074739 -0.222107 -0.083481 0.172516 -0.131265 -0.283702 -0.029585 -0.138616 -0.094043 
-0.310885 -0.09411 0.081322 0.037617 0.300457 -0.202527 0.131245 -0.21002 -0.236226 
0.029773 -0.089039 -0.161643 -0.37202 -0.11732 0.06599 -0.03406 -0.045385 -0.172346 
-0.397786 -0.026139 0.059166 -0.307794 -0.147869 0.106328 0.057719 0.195006 -0.252886 
0.058209 0.087543 -0.277256 -0.101804 -0.160867 -0.172993 -0.034985 0.112429 -0.217368 
-0.001646 -0.107684 -0.256822 -0.045228 0.126954 -0.246061 -0.361382 -0.145298 0.029889 
-0.012741 0.132639 -0.278059 -0.010647 -0.188174 -0.202003 -0.089898 -0.131863 -0.156534 
0.033325 -0.046231 -0.252728 -0.29396 -0.087484 0.028257 -0.430552 -0.031671 0.054981 
-0.458143 -0.055871 0.021096 -0.077508 -0.009046 -0.229992 -0.096742 -0.134528 -0.227929 
-0.016869 -0.027286 -0.285408 -0.453585 0.017132 0.031029 -0.075211 -0.012735 -0.264815 
-0.576459 -0.001181 0.044735 -0.347622 -0.102657 -0.025308 -0.4394 0.062413 -0.010298 
-0.457559 0.002247 -0.030334 -0.394395 -0.045141 -0.042226 -0.544615 -0.00096 0.058455 
-0.570704 0.027734 0.001341 -0.555999 0.116815 -0.021832 -0.556537 0.060582 0.031357 
-0.630323 0.030998 0.001161 -0.700367 0.079871 0.044 -0.74616 -0.008218 0.096887 
-0.539846 0.095165 -0.045089 -0.687337 0.067524 -0.01777 -0.78542 0.071979 0.044896 
-0.715859 -0.014382 0.076458 -0.713978 0.134114 -0.012498 -0.591796 0.135886 -0.049338 
-0.786944 -0.051275 0.064493 -0.749807 0.035131 -0.005971 -0.665624 0.121637 -0.060536 
-0.830166 -0.035367 0.064664 -0.744001 0.152571 -0.092107 -0.834697 0.077972 -0.002867 
-0.891214 -0.06089 -0.017896 -0.773668 0.146758 -0.038396 -0.781127 0.163954 -0.11819 
-0.776003 0.090391 -0.128292 -0.820938 -0.013415 -0.138398 -0.822821 -0.059567 -0.047504 
-0.88973 -0.060323 -0.124778 -0.86264 0.066631 -0.128346 -0.834726 0.052648 -0.14887 

POLYGONS 501 1500
OFFSETS vtktypeint64
0 3 6 9 12 15 18 21 24 
27 30 33 36 39 42 45 48 51 
54 57 60 63 66 69 72 75 78 
81 84 87 90 93 96 99 102 105 
108 111 114 117 120 123 126 129 132 
135 138 141 144 147 150 153 156 159 
162 165 168 171 174 177 180 183 186 
189 192 195 198 201 204 207 210 213 
216 219 222 225 228 231 234 237 240 
243 246 249 252 255 258 261 264 267 
270 273 276 279 282 285 288 291 294 
297 300 303 306 309 312 315 318 321 
324 327 330 333 336 339 342 345 348 
351 354 357 360 363 366 369 372 375 
378 381 384 387 390 393 396 399 402 
405 408 411 414 417 420 423 426 429 
432 435 438 441 444 447 450 453 456 
459 462 465 468 471 474 477 480 483 
486 489 492 495 498 501 504 507 510 
513 516 519 522 525 528 531 534 537 
540 543 546 549 552 555 558 561 564 
567 570 573 576 579 582 585 588 591 
594 597 600 603 606 609 612 615 618 
621 624 627 630 633 636 639 642 645 
648 651 654 657 660 663 666 669 672 
675 678 681 684 687 690 693 696 699 
702 705 708 711 714 717 720 723 726 
729 732 735 738 741 744 747 750 753 
756 759 762 765 768 771 774 777 780 
783 786 789 792 795 798 801 804 807 
810 813 816 819 822 825 828 831 834 
837 840 843 846 849 852 855 858 861 
864 867 870 873 876 879 882 885 888 
891 894 897 900 903 906 909 912 915 
918 921 924 927 930 933 936 939 942 
945 948 951 954 957 960 963 966 969 
972 975 978 981 984 987 990 993 996 
999 1002 1005 1008 1011 1014 1017 1020 1023 
1026 1029 1032 1035 1038 1041 1044 1047 1050 
1053 1056 1059 1062 1065 1068 1071 1074 1077 
1080 1083 1086 1089 1092 1095 1098 1101 1104 
1107 1110 1113 1116 1119 1122 1125 1128 1131 
1134 1137 1140 1143 1146 1149 1152 1155 1158 
1161 1164 1167 1170 1173 1176 1179 1182 1185 
1188 1191 1194 1197 1200 1203 1206 1209 1212 
1215 1218 1221 1224 1227 1230 1233 1236 1239 
1242 1245 1248 1251 1254 1257 1260 1263 1266 
1269 1272 1275 1278 1281 1284 1287 1290 1293 
1296 1299 1302 1305 1308 1311 1314 1317 1320 
1323 1326 1329 1332 1335 1338 1341 1344 1347 
1350 1353 1356 1359 1362 1365 1368 1371 1374 
1377 1380 1383 1386 1389 1392 1395 1398 1401 
1404 1407 1410 1413 1416 1419 1422 1425 1428 
1431 1434 1437 1440 1443 1446 1449 1452 1455 
1458 1461 1464 1467 1470 1473 1476 1479 1482 
1485 1488 1491 1494 1497 1500 
CONNECTIVITY vtktypeint64
80 72 103 138 137 142 47 77 57 
57 77 75 64 57 75 70 74 117 
49 67 129 94 79 97 55 92 99 
90 99 137 77 90 137 75 77 137 
75 137 138 103 110 98 103 72 110 
99 92 134 99 134 131 137 99 131 
142 137 131 117 98 136 98 110 136 
117 136 155 155 136 180 180 136 167 
180 167 182 156 176 200 180 182 183 
183 182 203 182 205 203 205 172 207 
60 10 34 15 10 60 34 10 65 
94 36 60 60 34 79 60 79 94 
118 147 141 147 145 141 145 122 141 
56 133 85 160 108 143 108 111 143 
141 121 118 133 105 153 56 105 133 
108 62 111 73 62 108 102 95 111 
66 73 108 62 102 111 120 95 102 
45 120 102 33 66 84 33 27 66 
27 19 66 45 33 120 45 29 33 
27 33 29 116 160 174 106 116 174 
152 106 174 116 108 160 95 120 152 
120 106 152 116 84 108 106 84 116 
84 66 108 120 84 106 33 84 120 
111 149 143 150 149 152 95 152 149 
111 95 149 128 109 159 135 122 145 
121 141 122 105 96 153 105 58 96 
56 85 154 105 39 58 37 105 56 
37 39 105 41 37 56 62 25 102 
41 26 37 19 35 73 19 32 35 
35 25 62 25 45 102 18 45 25 
8 19 27 3 27 29 18 29 45 
85 133 173 181 174 194 160 194 174 
160 185 194 152 171 179 171 174 181 
171 152 174 160 143 185 73 35 62 
19 73 66 38 63 54 163 138 142 
155 175 176 65 1 20 142 131 164 
163 142 164 156 155 176 155 180 175 
200 176 201 200 201 207 218 205 207 
236 239 235 241 235 239 244 235 241 
241 245 244 241 246 245 2 1 10 
10 1 65 15 2 10 17 15 60 
17 60 36 47 50 90 90 50 55 
47 90 77 213 222 223 70 67 49 
34 65 79 65 114 79 36 94 89 
55 99 90 6 16 30 16 22 30 
7 13 22 8 5 6 8 3 5 
0 5 3 0 3 13 248 249 247 
248 240 243 237 240 248 237 230 240 
230 237 234 223 206 213 220 206 223 
202 209 215 209 214 215 184 220 223 
12 24 39 30 22 25 93 89 97 
97 114 130 114 104 130 86 87 98 
115 91 132 93 69 89 114 81 104 
81 71 104 20 71 81 20 69 71 
70 42 46 40 57 64 40 28 57 
43 40 64 52 43 64 48 31 52 
14 31 48 23 14 50 16 4 17 
16 17 21 21 22 16 21 9 22 
6 5 4 5 2 4 5 0 2 
9 7 22 9 0 7 1 0 9 
246 247 251 71 69 93 23 28 12 
58 54 88 63 154 83 63 56 154 
63 41 56 39 24 58 70 117 127 
110 72 139 129 139 72 127 117 156 
110 139 167 156 117 155 136 110 167 
167 172 182 156 200 193 207 193 200 
193 207 172 182 172 205 67 70 127 
140 129 67 67 127 140 129 140 139 
139 140 148 127 156 193 140 127 148 
148 127 193 139 148 167 167 148 172 
148 193 172 26 39 37 30 25 35 
32 30 35 19 8 32 13 29 18 
178 189 202 173 178 208 159 168 188 
159 199 168 153 158 189 153 189 178 
169 85 173 179 171 181 159 109 199 
154 85 169 96 126 153 27 3 8 
173 133 178 133 153 178 38 51 43 
51 40 43 31 43 52 31 38 43 
31 14 38 12 28 40 23 11 14 
11 23 12 6 4 16 0 13 7 
250 251 249 251 247 249 243 250 249 
243 242 250 240 242 243 238 248 247 
238 237 248 238 234 237 232 228 234 
229 230 227 219 234 228 234 227 230 
234 224 227 219 224 234 213 225 222 
213 219 225 248 243 249 246 238 247 
238 246 241 240 233 242 240 230 233 
230 229 233 232 234 238 228 232 239 
225 219 228 231 228 239 231 225 228 
222 225 231 216 204 215 58 40 51 
38 54 51 24 12 40 24 40 58 
46 59 61 58 51 54 46 61 74 
46 42 59 59 42 53 74 61 82 
53 68 78 101 93 119 101 121 104 
125 119 93 87 82 112 78 87 112 
104 121 122 104 122 130 130 122 135 
130 135 125 123 151 165 123 165 162 
123 146 151 146 157 151 146 170 177 
177 170 187 187 162 190 186 175 195 
186 195 210 216 210 204 209 197 214 
198 192 211 212 198 217 213 212 224 
198 211 217 216 215 218 214 218 215 
217 211 223 224 212 217 213 224 219 
224 217 227 221 222 231 227 221 226 
226 221 231 227 217 221 221 223 222 
217 223 221 197 203 214 201 210 216 
175 183 197 195 175 197 201 186 210 
170 163 187 163 164 187 164 162 187 
134 123 162 132 170 146 93 97 125 
97 130 125 80 87 78 86 74 87 
104 71 101 101 71 93 68 80 78 
74 82 87 53 42 68 101 119 121 
53 107 100 100 59 53 38 14 63 
12 39 26 11 12 26 14 41 63 
14 11 41 11 26 41 8 6 32 
32 6 30 25 22 18 22 13 18 
13 3 29 206 196 213 220 188 206 
184 188 220 202 158 209 178 215 208 
178 202 215 188 168 206 199 206 168 
199 196 206 188 184 144 202 189 158 
158 191 209 169 208 204 190 181 194 
54 83 88 54 63 83 169 173 208 
20 9 21 1 9 20 4 15 17 
4 2 15 2 0 1 245 246 251 
161 169 195 166 124 184 113 166 192 
179 181 190 194 187 190 208 215 204 
78 124 107 78 112 124 112 82 144 
100 107 113 53 78 107 119 125 147 
147 125 135 124 112 144 151 157 150 
150 165 151 157 146 177 107 124 166 
113 107 166 165 179 162 161 195 191 
211 166 184 192 166 211 162 179 190 
195 169 204 195 204 210 191 195 197 
191 197 209 199 192 198 199 198 212 
196 199 212 223 211 184 196 212 213 
242 245 250 244 245 242 239 232 241 
233 235 244 233 229 235 226 236 235 
236 231 239 229 226 235 236 226 231 
207 216 218 214 203 218 203 205 218 
207 201 216 197 183 203 186 201 176 
176 175 186 175 180 183 164 134 162 
170 138 163 132 138 170 132 91 138 
92 115 123 115 132 123 123 132 146 
233 244 242 232 238 241 227 226 229 
185 187 194 124 144 184 144 159 188 
158 126 191 161 154 169 185 177 187 
143 177 185 152 179 165 192 199 113 
126 161 191 157 177 143 149 157 143 
149 150 157 150 152 165 109 113 199 
88 83 126 96 88 126 126 154 161 
154 126 83 147 135 145 118 119 147 
121 119 118 109 100 113 82 128 144 
82 61 128 59 100 109 59 109 61 
96 58 88 144 128 159 61 109 128 
134 164 131 91 75 138 91 76 75 
92 123 134 87 103 98 80 103 87 
117 86 98 50 14 48 70 46 74 
20 21 44 23 50 47 23 47 28 
65 20 81 44 21 36 50 48 55 
55 48 115 48 52 115 57 28 47 
42 70 49 42 49 68 114 65 81 
44 36 89 20 44 69 69 44 89 
55 115 92 115 76 91 115 52 76 
52 64 76 76 64 75 117 74 86 
68 49 129 68 129 72 68 72 80 
79 114 97 89 94 97 153 126 158 
250 245 251 21 17 36 
POINT_DATA 252
SCALARS k float
LOOKUP_TABLE default
0.109489 0.162361 0.651842 0.281419 0.247028 0.40058 0.183767 -0.171317 0.12702 
-0.521279 0.225003 0.314024 0.478435 0.0310943 -0.0728658 0.681851 -0.0801888 -0.0898278 
-0.027926 0.077122 -0.729234 -1.1545 -0.607406 0.530234 0.178147 -0.477656 0.238244 
0.117826 0.290846 0.117985 -0.237897 -0.265665 0.0470033 0.423108 0.689155 -0.096092 
-0.27136 0.450457 -0.604216 0.322908 -0.203964 0.203275 0.291979 -0.35377 -0.871554 
-0.184325 0.258722 0.468869 -0.560343 0.162178 0.372191 -0.15288 -0.668458 0.136295 
-0.370282 0.126165 0.158825 0.417554 0.0931695 0.371691 0.489205 0.498342 -0.296561 
-0.844647 -0.305201 0.533319 0.649884 0.381986 0.0602353 0.00196123 0.390147 -0.681278 
-0.0980872 0.273634 -0.167822 -0.131069 -0.279413 0.0972611 -0.333116 0.14794 -0.129151 
0.0569053 -0.129741 -0.16231 0.182343 0.103755 0.344453 -0.768973 -0.204483 -0.0101063 
0.379565 -0.169505 0.141007 -0.540849 0.176622 -0.640892 0.284699 0.684716 -0.628635 
0.357164 0.390834 -0.0595945 -1.02248 -0.13695 0.271073 0.244773 0.556386 -0.303029 
-0.0217721 0.581148 -0.274614 -0.806832 -0.794815 -0.310168 0.249049 -0.3707 0.613342 
-0.520051 0.601153 0.0203762 0.0964453 0.0902085 0.0191977 -0.206031 -0.506388 0.124317 
-0.580602 0.617932 0.545397 0.52836 0.205402 0.171893 -0.609489 0.459829 0.432089 
-0.0988433 -1.09506 0.217843 -0.44782 0.0164567 0.543027 4.68022 0.198562 -0.358606 
-0.179954 0.541695 -0.359817 -0.0374651 0.319448 -1.03042 -0.0287418 -0.0774386 0.122677 
0.112394 -0.670845 -0.816106 0.194932 -0.424042 0.119671 0.506008 -0.0281034 -0.42983 
0.489904 0.206711 0.263609 0.258177 -0.314872 -0.166113 0.416421 0.0298501 -0.296458 
0.371589 0.562504 0.230776 0.377387 -0.312994 0.238177 -0.34406 0.253756 0.427561 
-0.584714 0.292839 -0.214535 -0.155169 0.335398 -0.0514221 0.0248247 0.0394206 -0.181783 
0.186335 0.208129 -0.405518 -0.620557 0.586638 0.353468 -1.32415 0.0266277 -0.406187 
0.14363 -0.102321 0.227603 0.366704 0.27971 -0.215251 0.172132 -0.108305 0.257988 
0.261464 0.324919 -0.0938116 0.10972 -0.298879 -0.467935 -0.499298 -0.01737 0.698835 
0.229683 -0.519108 0.245943 -0.420707 0.315203 0.959547 -0.257678 0.074138 -0.353416 
-0.141569 0.0392246 -0.0223869 0.0411497 0.0574136 0.760013 -0.111127 -0.0814936 0.205966 
-0.766342 -0.0344599 0.834234 0.424177 -0.188069 -0.802718 0.524598 -0.540562 0.26048 
1.08475 0.263293 1.72535 0.208476 0.561359 0.14109 2.00495 0.511928 0.328283 

FIELD FieldData 7
h 1 252 float
1.18881 0.480751 2.65023 0.380212 -0.53255 3.13048 -0.726397 0.651087 26.0142 
0.109254 1.09336 0.467888 7.66201 1.24647 -0.987712 -0.0565375 -0.0324155 -0.16514 
0.905037 -0.0092105 0.25239 0.0110897 -1.66488 4.69981 0.00727016 -1.03792 2.12052 
-0.0193156 1.19199 1.4267 -0.660227 0.608257 -0.830587 -0.0461092 1.81067 -0.776297 
-0.41099 0.509996 -10.3801 4.64395 -1.01118 0.542332 3.31208 -0.791043 -0.488974 
1.03572 2.74229 15.0774 -0.793259 1.97622 -0.798107 -1.0329 -9.22851 -1.53647 
-2.06644 -0.439969 0.47721 -0.38197 -1.53193 3.95256 -0.0597013 1.07817 0.249716 
0.922445 -0.226048 0.797472 2.35099 8.15516 -1.25842 -1.39877 0.546133 0.279672 
-0.513482 -0.823199 0.939553 0.0649023 -2.01316 0.77679 -0.695727 10.2305 -0.00563025 
0.912522 1.82719 -2.12608 2.10591 0.896492 0.794248 -4.35786 -0.438854 -0.414495 
11.8619 -1.68627 0.512004 0.209707 -0.388253 0.82361 -1.03541 -0.277959 -4.47484 
1.63227 -1.16597 0.326752 -0.0526724 0.0308693 0.598568 28.4428 -0.2765 -2.2637 
-0.575819 5.45344 -1.13186 -0.440635 -1.82507 -1.53172 0.505597 0.815422 0.342304 
0.938729 9.11443 -1.64904 0.0331259 0.971001 1.1527 0.164009 -1.81806 -0.702588 
-0.275031 -0.418438 2.55745 -0.264415 1.89886 2.65586 -12.882 0.375583 1.16722 
5.46286 -11.4551 0.538688 -0.00635804 -1.27368 2.77543 1.43602 0.168521 -0.538181 
1.79345 10.1903 -0.0657647 -1.88281 0.580648 0.193036 1.15925 1.11831 0.00989568 
-0.347485 0.778203 1.15395 -0.924154 -4.51272 -1.48939 1.21439 -1.05983 -9.02489 
0.302995 -1.22602 3.8458 1.53502 -1.64896 -2.51877 1.36244 1.44249 -0.292671 
0.467778 0.103552 1.62562 1.30596 -9.26339 1.6096 -0.313451 19.0794 0.212429 
-0.948069 4.32214 -1.85207 -2.20891 0.772424 -1.60906 1.29633 -1.01352 0.356048 
3.49144 5.88084 -0.692007 -1.22575 26.8946 -0.895962 0.62183 1.75455 -1.26649 
-0.516572 -0.706995 2.02606 1.17328 0.672582 -1.65253 -0.225177 -0.520439 1.88254 
28.2601 2.4272 -2.13272 0.239991 0.762566 0.874191 -0.962436 -1.45978 5.01985 
5.64365 -1.00084 0.893833 -1.17896 1.11159 5.26201 0.319281 -1.30689 2.53557 
0.8348 -0.700935 2.97441 0.664103 4.07341 1.21875 0.310691 0.126674 4.2187 
2.24666 3.21582 14.0309 1.29346 -0.537547 0.556657 9.03202 -2.4483 5.55555 
8.87182 4.30113 10.1128 -2.72511 0.137361 0.0269805 7.15199 1.879 0.385148 

kmin 1 252 float
1.65325 1.17163 3.12343 0.900677 -0.172092 4.30486 -0.427254 1.09139 48.2952 
0.584283 2.06279 1.70007 10.6109 1.65728 -0.529718 0.484761 0.800441 0.576425 
1.14172 0.21849 0.588606 1.06269 -0.508579 7.29679 0.991109 0.150785 3.43159 
0.164054 2.32477 2.31012 -0.000372025 0.850323 -0.508692 0.193394 2.16427 0.201524 
0.59033 1.42333 -4.85057 6.45903 0.220397 1.95915 6.47736 0.523529 0.0846085 
1.502 3.28775 24.7637 -0.688195 2.71221 -0.576334 0.468184 -5.47023 -0.895417 
-0.803563 -0.0701428 1.56374 0.416297 -0.906111 6.38373 0.353467 3.12584 0.565272 
1.30849 0.636176 1.49965 3.30322 13.7915 -0.456905 -0.484635 1.85708 0.499159 
1.66727 -0.158224 3.38652 0.560166 -0.779545 1.76123 1.29194 15.9745 1.87554 
1.33995 3.1668 -0.2767 2.94477 1.62732 1.44736 0.191807 0.362966 0.545842 
18.788 -0.944733 1.24357 0.460757 0.154842 1.10542 -0.792272 0.315411 -2.81351 
2.45779 -0.487611 0.485607 0.334681 1.78802 1.18174 54.2279 -0.183601 0.0237909 
0.0371403 9.20694 0.0609499 0.236884 2.52597 -0.191218 1.57272 1.07021 0.659431 
1.98408 19.5507 -0.239406 0.277273 1.46959 1.99368 0.622629 -0.212029 0.379858 
0.359926 -0.302809 4.95929 0.0859536 3.18859 2.76692 -4.35844 1.02332 1.65821 
9.91955 -6.83325 1.06362 0.324098 -0.730136 4.39987 2.95355 0.805644 -0.0405519 
3.5317 19.2931 0.44195 -0.397479 1.29165 0.349571 1.43285 1.28886 0.3571 
-0.0876539 1.06412 1.23294 -0.652342 -4.2548 -1.02275 2.61203 -0.682357 -5.03862 
0.90029 -0.80327 5.63766 1.97828 -0.175229 -1.54806 2.30365 1.73283 0.379958 
0.756506 0.445419 2.39547 1.82152 -1.65135 1.91131 0.2277 32.795 0.600801 
0.385181 6.02815 -0.772986 -0.705109 2.2342 -0.573915 1.81979 -0.754746 2.05476 
4.92848 8.86314 0.0473594 -0.589502 47.5994 -0.792858 0.627354 4.75305 -0.451296 
0.0323268 -0.203704 2.81617 2.82139 1.29118 -0.786315 0.141545 -0.0788938 2.60191 
54.3034 3.29633 -1.34731 1.11913 2.48842 2.85392 0.532493 -0.730036 6.87105 
7.63515 -0.690133 1.70732 0.159608 2.35381 11.3768 1.06776 1.42423 5.989 
1.96078 0.231162 6.80016 4.1373 8.03759 2.21061 1.09688 4.77214 7.02978 
5.55282 6.31455 27.0436 7.57219 3.1007 1.73967 15.9288 -0.747834 7.44501 
11.8358 4.93371 14.3594 1.14826 4.54052 3.21334 14.3884 5.58704 1.51113 

kmax 1 252 float
0.724365 -0.210129 2.17703 -0.140254 -0.893008 1.9561 -1.02554 0.210784 3.73314 
-0.365776 0.123933 -0.764298 4.7131 0.835665 -1.4457 -0.597836 -0.865272 -0.906705 
0.668356 -0.236911 -0.0838265 -1.04051 -2.82118 2.10284 -0.976569 -2.22663 0.80944 
-0.202686 0.0592164 0.543281 -1.32008 0.366191 -1.15248 -0.285612 1.45708 -1.75412 
-1.41231 -0.403335 -15.9095 2.82888 -2.24275 -0.874482 0.146799 -2.10562 -1.06256 
0.569444 2.19683 5.39095 -0.898323 1.24023 -1.01988 -2.53399 -12.9868 -2.17752 
-3.32931 -0.809795 -0.609315 -1.18024 -2.15775 1.5214 -0.472869 -0.969494 -0.0658396 
0.536397 -1.08827 0.0952946 1.39877 2.51886 -2.05994 -2.3129 -0.764817 0.0601844 
-2.69423 -1.48817 -1.50741 -0.430361 -3.24677 -0.207654 -2.68339 4.48642 -1.8868 
0.485093 0.487586 -3.97546 1.26704 0.165668 0.141137 -8.90753 -1.24067 -1.37483 
4.93586 -2.4278 -0.219567 -0.0413438 -0.931349 0.541803 -1.27855 -0.871329 -6.13618 
0.806752 -1.84434 0.167897 -0.440026 -1.72628 0.0153917 2.65776 -0.3694 -4.55119 
-1.18878 1.69995 -2.32467 -1.11815 -6.17611 -2.87222 -0.561531 0.560635 0.0251767 
-0.106622 -1.32186 -3.05867 -0.211022 0.472412 0.311727 -0.29461 -3.42409 -1.78503 
-0.909987 -0.534067 0.155606 -0.614784 0.60913 2.5448 -21.4056 -0.272156 0.676238 
1.00617 -16.077 0.0137587 -0.336815 -1.81722 1.15098 -0.0815202 -0.468602 -1.03581 
0.0552009 1.08755 -0.57348 -3.36814 -0.130352 0.0365013 0.885646 0.947758 -0.337308 
-0.607317 0.492285 1.07497 -1.19596 -4.77064 -1.95604 -0.183256 -1.4373 -13.0112 
-0.2943 -1.64876 2.05394 1.09176 -3.12268 -3.48947 0.421229 1.15216 -0.965299 
0.179051 -0.238314 0.855766 0.790404 -16.8754 1.30789 -0.854602 5.36379 -0.175942 
-2.28132 2.61614 -2.93115 -3.71272 -0.689347 -2.64421 0.772867 -1.27229 -1.34267 
2.05441 2.89855 -1.43137 -1.862 6.18978 -0.999066 0.616306 -1.24394 -2.08169 
-1.06547 -1.21028 1.23594 -0.474824 0.0539831 -2.51874 -0.591898 -0.961984 1.16318 
2.21668 1.55808 -2.91813 -0.639153 -0.963289 -1.10554 -2.45737 -2.18952 3.16866 
3.65214 -1.31155 0.0803449 -2.51753 -0.130627 -0.85275 -0.429198 -4.03802 -0.91786 
-0.291179 -1.63303 -0.85134 -2.8091 0.109231 0.226896 -0.475499 -4.5188 1.40762 
-1.0595 0.117086 1.01816 -4.98527 -4.17579 -0.626358 2.13528 -4.14877 3.66609 
5.90788 3.66855 5.86625 -6.59849 -4.2658 -3.15938 -0.0844157 -1.82905 -0.740833 

hks 16 252 double
0.54133917967 0.54011817411 0.53897458225 0.53793134752 0.53700737278 0.5362172966 0.53557151726 0.53507645865 0.53473505667 
0.53454743149 0.53451169996 0.53462487527 0.5348837976 0.53528603957 0.53583073457 0.53651928289 0.50714554954 0.50939403446 
0.51189045495 0.51462467167 0.51758629122 0.52076519549 0.52415209562 0.5277390777 0.53152010418 0.53549143476 0.53965193465 
0.54400324456 0.5485497962 0.55329866749 0.55825928247 0.56344297088 0.54455416432 0.54641521549 0.54823061081 0.54999350831 
0.55169873254 0.5533434011 0.55492751287 0.55645446124 0.5579314404 0.55936971908 0.56078476432 0.56219620647 0.56362764481 
0.56510630062 0.56666253114 0.56832922289 0.54805055466 0.54794593693 0.54776075178 0.54748956458 0.54712645746 0.54666545037 
0.54610096493 0.54542830148 0.5446441009 0.54374676648 0.5427368271 0.54161722977 0.54039355704 0.53907417084 0.5376702895 
0.53619600713 0.56269964496 0.56312251763 0.56345923516 0.56371809151 0.56390786888 0.56403795458 0.56411850667 0.56416065573 
0.5641767277 0.56418047219 0.56418728038 0.56421437675 0.5642809694 0.56440834406 0.56461988823 0.56494103332 0.55085079482 
0.55163977913 0.55237426147 0.55303926445 0.55362009343 0.55410313758 0.55447666169 0.55473154235 0.55486190806 0.55486565253 
0.55474480191 0.5545057293 0.55415922101 0.55372040828 0.55320858433 0.55264692901 0.5733668713 0.57181525349 0.57021053359 
0.56857053035 0.56691021547 0.56524159387 0.5635737747 0.56191322141 0.56026416056 0.55862912094 0.55700956997 0.55540661131 
0.55382170706 0.55225738877 0.55071792441 0.54920991142 0.53575847453 0.53253309516 0.52960513873 0.52699567577 0.52471888533 
0.52278186259 0.52118476558 0.51992129811 0.51897950373 0.51834282505 0.51799136498 0.51790327455 0.51805618539 0.51842860529 
0.51900120088 0.51975790292 0.54206456645 0.54296004521 0.54372054048 0.54433602415 0.54479527423 0.545086607 0.54519870532 
0.54512148071 0.54484690611 0.54436976187 0.54368824871 0.5428044367 0.541724536 0.54045899164 0.53902241916 0.53743340803 
0.45165617154 0.4537803475 0.45618700547 0.45887480056 0.46183721053 0.4650631833 0.46853801308 0.47224438862 0.47616354571 
0.48027645015 0.48456493819 0.48901274728 0.49360638111 0.49833576742 0.50319468353 0.50818094098 0.60232342372 0.6030611243 
0.60374925198 0.6044190629 0.6051036896 0.60583781411 0.60665733722 0.6075990385 0.60870022013 0.60999832699 0.61153053645 
0.61333331302 0.61544192542 0.61788992755 0.62070860867 0.62392642322 0.62216731912 0.61577058825 0.60928187804 0.60272847374 
0.5961407871 0.58955128037 0.5829932364 0.57649945492 0.57010096138 0.56382581235 0.55769807138 0.55173701302 0.5459565919 
0.54036519213 0.53496565037 0.52975552803 0.5789791861 0.57738673321 0.57537622893 0.57297472154 0.57021443815 0.56713173886 
0.56376592386 0.56015794996 0.55634912017 0.55237981225 0.54828830907 0.54410978606 0.53987549853 0.53561219685 0.53134178077 
0.52708118827 0.54359540756 0.54176893205 0.53992591636 0.5380939756 0.53629729038 0.53455600343 0.53288585582 0.53129808193 
0.52979956582 0.52839324548 0.52707873587 0.52585312859 0.52471191663 0.5236499865 0.52266261888 0.5217464414 0.43419410829 
0.43453136517 0.43492405675 0.43537071143 0.43586746367 0.43640777738 0.43698233893 0.43757913435 0.4381837081 0.4387795829 
0.4393488057 0.43987257447 0.44033189579 0.44070822372 0.4409840363 0.44114331537 0.60953512771 0.60874654923 0.60793166722 
0.60710652157 0.60628946408 0.6055011784 0.60476466415 0.60410517859 0.60355012903 0.60312890886 0.60287267003 0.60281402543 
0.60298667618 0.60342496102 0.60416332893 0.60523574095 0.51660116898 0.51631256333 0.51621846775 0.51631296615 0.51658688395 
0.51702835753 0.51762354212 0.51835742464 0.51921470192 0.52018068101 0.5212421578 0.52238823174 0.52361101936 0.5249062352 
0.52627361656 0.52771717677 0.57323363107 0.57237909925 0.5716749894 0.57113445055 0.57076996066 0.57059344786 0.57061648216 
0.57085052135 0.57130718842 0.57199855282 0.57293738531 0.5741373561 0.5756131489 0.57738046873 0.57945592907 0.58185681315 
0.51372900568 0.5123459212 0.51112329478 0.51005019667 0.50911099195 0.50828615428 0.50755326358 0.50688812843 0.5062659672 
0.50566258057 0.50505545203 0.50442472258 0.50375399862 0.50303096751 0.50224781114 0.50140142216 0.52274866898 0.52358593955 
0.52429236047 0.52485630953 0.52526528145 0.52550650309 0.52556762762 0.52543745965 0.5251066612 0.52456839079 0.52381883475 
0.52285760064 0.52168795515 0.52031690256 0.518755113 0.51701672074 0.48475332548 0.49082618238 0.49737146368 0.5043783328 
0.51182969836 0.51970306743 0.5279716194 0.53660542438 0.5455727199 0.55484115793 0.56437894065 0.57415577682 0.58414361008 
0.59431709257 0.60465379976 0.61513420391 0.44433753879 0.44836826872 0.45265295235 0.45718488692 0.46195375202 0.46694643088 
0.47214797325 0.47754263416 0.48311491826 0.48885056116 0.49473738556 0.500765982 0.50693017833 0.51322727853 0.51965806836 
0.52622660036 0.44316507025 0.44590685047 0.44873592027 0.45163781118 0.4545943125 0.45758437506 0.4605852059 0.46357348196 
0.46652660326 0.46942390646 0.47224776641 0.47498452682 0.4776252179 0.48016603789 0.48260859347 0.48495991058 0.5674564772 
0.56444572904 0.561280944 0.55797263687 0.55453474282 0.55098401893 0.54733929143 0.54362059757 0.53984827852 0.53604208292 
0.53222033751 0.52839923426 0.52459227153 0.52080987327 0.51705919564 0.51334411594 0.57487679491 0.56872421497 0.56283167572 
0.5571931826 0.55180246511 0.54665274898 0.5417364376 0.53704476246 0.53256746326 0.52829255035 0.52420618794 0.52029271847 
0.51653482907 0.51291384393 0.50941011272 0.5060034573 0.47517529284 0.47658179243 0.47798504135 0.47936288995 0.48069086687 