# vtk DataFile Version 5.1
vtk output
ASCII
DATASET POLYDATA
POINTS 252 float
0.173737 -0.755665 -0.426784 0.724094 0.036685 -0.027835 0.173106 -0.734382 -0.288873 
0.730295 0.089802 -0.089323 0.201704 -0.701165 -0.424384 0.219468 -0.707809 -0.227 
0.18875 -0.638758 -0.110535 0.722477 0.078732 0.002664 0.245571 -0.672299 -0.287656 
0.784365 0.154691 -0.082203 0.143067 -0.704371 -0.307757 0.122296 -0.768107 -0.419108 
0.704274 0.035753 -0.047655 0.12091 -0.719482 -0.50965 0.655329 0.060604 -0.014794 
0.580744 -0.071236 -0.073515 0.602875 -0.069098 -0.125669 0.666792 0.096905 -0.025444 
0.712369 0.134497 -0.094042 0.616072 0.00959 0.100982 0.081315 -0.708418 -0.463254 
0.175902 -0.641471 -0.319122 0.380203 -0.367499 0.137011 0.360607 -0.388245 0.061274 
0.471036 -0.167286 -0.067354 0.384852 -0.332128 -0.046866 0.651374 0.181922 -0.025336 
0.546937 -0.104677 0.141621 0.416157 -0.293904 0.074384 0.157644 -0.612218 -0.193474 
0.359065 -0.318754 -0.12681 0.50941 -0.084807 -0.132587 0.533597 -0.066439 -0.05209 
0.245234 -0.548341 -0.019868 0.229761 -0.542163 -0.092406 0.582991 -0.045182 0.094226 
0.320505 -0.375917 -0.005057 0.492851 -0.099631 0.201614 0.678274 0.075494 0.016948 
0.210457 -0.57149 -0.015078 0.469266 -0.24888 0.144694 0.180964 -0.529969 -0.04954 
0.518821 -0.027038 -0.096601 0.440137 -0.190053 -0.112542 0.561403 0.011838 -0.070492 
0.478334 -0.172445 0.10536 0.572968 -0.001479 0.152574 0.390294 -0.238093 0.027321 
0.590633 0.026315 -0.087589 0.257114 -0.405719 -0.071788 0.514709 -0.016123 0.118085 
0.387058 -0.185598 0.052216 0.398755 -0.061084 -0.115008 0.684582 0.185591 0.008129 
0.623044 0.110427 4.8e-05 0.487136 -0.039935 0.169943 0.230045 -0.334211 -0.140581 
0.653784 0.181343 0.057922 0.27226 -0.416148 0.112839 0.138348 -0.424368 -0.032907 
0.376244 -0.033028 -0.079931 0.412212 -0.040134 -0.048454 0.203827 -0.446143 -0.001262 
0.350271 -0.238124 0.234022 0.413292 -0.128914 -0.007789 0.371217 -0.097434 0.18583 
0.37596 -0.146075 0.111077 0.205194 -0.23347 -0.166397 0.583379 0.265263 0.066206 
0.600262 0.196166 0.082383 0.325923 -0.127862 0.248741 0.129947 -0.383683 0.128987 
0.305337 -0.198938 -0.164408 0.592846 0.191984 0.030099 0.147792 -0.440866 0.002003 
0.218931 -0.341079 0.206444 0.235616 -0.195664 0.239393 0.308162 -0.030636 -0.030849 
0.295134 -0.042854 -0.11222 0.317149 -0.083071 0.153824 0.306983 -0.030398 0.170121 
0.168426 -0.117932 -0.133098 0.262007 -0.106089 0.215699 0.298601 -0.006624 -0.006298 
0.083618 -0.2756 -0.116302 0.330598 0.086576 0.117578 0.325562 0.045864 -0.009194 
0.124685 -0.218191 0.23129 0.04967 -0.252853 0.193779 0.043327 -0.343187 0.006086 
0.22925 -0.065113 0.240888 0.281695 0.10863 0.208543 -0.010914 -0.260633 0.028907 
0.245739 -0.029083 -0.076545 0.008492 -0.286923 0.109898 0.301924 0.197955 0.018977 
0.231222 0.113223 -0.121122 0.185113 0.114746 0.268187 0.12953 -0.039191 -0.103625 
0.061106 -0.136556 -0.117474 -0.007667 -0.19552 -0.042108 -0.064659 -0.075273 0.081348 
0.100099 0.194871 -0.157077 0.045625 -0.07938 0.240901 -0.038898 -0.107763 0.14824 
0.217461 0.219535 0.212158 0.269505 0.233441 0.139684 0.011472 -0.055045 -0.052967 
-0.07332 0.004574 0.031926 0.226301 0.296493 -0.008114 0.030207 0.189314 0.224941 
0.015442 0.040147 0.233853 0.159963 0.276636 -0.105602 -0.030511 0.050713 -0.055265 
0.136666 0.055088 0.278731 -0.0194 0.152418 -0.124579 0.031153 0.273064 -0.147073 
0.089162 0.368089 -0.065862 0.152164 0.363136 0.043599 -0.400448 -0.448681 0.430728 
-0.342986 -0.341839 0.361745 0.081033 0.327821 0.180269 0.062682 0.41332 -0.192759 
-0.038234 0.316464 -0.199899 -0.071972 0.053899 0.149346 -0.362641 -0.408922 0.434188 
-0.211743 0.080162 0.073472 -0.294079 -0.092826 -0.142476 -0.245821 -0.069097 0.009878 
-0.010266 0.347985 -0.182125 0.062064 0.468579 -0.099188 0.099401 0.408292 -0.13954 
-0.439723 -0.249494 0.364075 -0.243669 -0.035852 0.132685 -0.356521 -0.189722 0.381854 
0.033808 0.42105 0.005009 -0.418476 -0.225611 0.317513 0.06471 0.382445 0.06491 
-0.321888 -0.171785 -0.070496 0.017245 0.364326 0.132265 0.085873 0.530988 0.017641 
-0.4056 -0.202605 -0.127548 -0.33258 -0.209568 0.050383 -0.41438 -0.225896 -0.009901 
-0.054358 0.209064 0.185455 -0.205535 0.159743 -0.112866 -0.346483 -0.215457 0.316648 
-0.327388 -0.145859 0.189904 -0.353574 -0.186744 0.231072 -0.094823 0.195274 -0.157238 
-0.229226 0.023077 -0.041778 -0.341622 -0.05841 -0.19779 -0.387728 -0.220826 0.139795 
-0.450547 -0.145141 -0.33959 0.0415 0.396251 -0.058324 -0.490829 -0.351963 -0.023331 
0.067159 0.500663 0.088805 -0.386318 -0.140255 -0.230591 -0.464319 -0.276733 -0.050336 
-0.404 -0.378893 0.448858 -0.209068 0.089038 -0.058991 -0.250667 0.058962 0.032899 
-0.448743 -0.182717 0.079129 -0.450101 -0.244845 0.021647 -0.29605 0.086038 -0.081065 
-0.048273 0.395916 -0.158591 0.034822 0.517417 0.095346 -0.379997 -0.098321 -0.311519 
-0.528659 -0.345236 0.036642 -0.488555 -0.144705 -0.381405 -0.328947 -0.125429 0.267406 
-0.398325 -0.199714 0.243937 -0.064085 0.437311 0.133038 0.072866 0.61773 -0.036279 
-0.556617 -0.30761 -0.084218 -0.445072 -0.145001 0.295897 -0.054091 0.386731 0.171289 
0.01374 0.512713 -0.008875 -0.010614 0.537784 -0.2044 -0.417345 -0.219688 0.149205 
-0.265502 0.148177 0.12737 -0.490499 -0.189501 -0.058056 0.078216 0.686048 -0.18466 
-0.398655 -0.033566 -0.1573 0.058714 0.661646 -0.00625 -0.371659 -0.045937 -0.262073 
-0.008602 0.518076 -0.147342 -0.459874 -0.152762 -0.197128 0.086687 0.709569 -0.253892 
-0.138934 0.383197 -0.163984 -0.392779 -0.083857 0.171278 -0.451449 -0.184629 0.24008 
-0.412739 -0.097678 0.311776 0.057195 0.742668 -0.195853 -0.475103 -0.143249 -0.298363 
-0.031647 0.605459 -0.18712 -0.562136 -0.189605 0.0528 -0.412478 -0.176125 0.379881 
-0.061498 0.468563 0.057402 -0.193484 0.259454 0.155349 4.8e-05 0.586475 0.041697 
0.016368 0.610785 -0.229421 -0.434465 -0.110311 0.217308 -0.509618 -0.114575 -0.293048 
-0.482492 -0.079084 -0.366 0.020458 0.691962 -0.221319 -0.632518 -0.310448 -0.044823 
0.035273 0.645727 -0.080182 -0.445562 -0.052845 -0.195112 -0.518762 -0.082789 -0.319044 
-0.48223 -0.115144 -0.064724 -0.55745 -0.209633 -0.295871 -0.383822 0.088874 -0.088 
0.005296 0.64978 -0.013554 -0.31214 0.013334 0.175249 -0.612037 -0.217362 -0.324064 
0.022066 0.738754 -0.208703 -0.095543 0.467259 -0.057502 -0.159434 0.460323 -0.042662 
-0.571742 -0.175763 -0.049547 0.038929 0.624502 -0.194818 -0.175136 0.302277 -0.176081 
-0.467367 -0.080364 -0.182506 -0.298578 0.15135 0.137533 -0.083114 0.756121 -0.005991 
-0.497868 -0.129996 0.024387 -0.58557 -0.140613 -0.352289 -0.472451 -0.119234 0.167149 
0.00354 0.609717 -0.159109 -0.521988 -0.023866 -0.03317 -0.440477 0.023302 0.152106 
-0.622575 -0.218594 -0.230398 -0.191049 0.404157 0.125019 -0.221816 0.375703 -0.075763 
-0.316569 0.182762 -0.09268 -0.635737 -0.287061 0.032334 -0.299433 0.282328 0.091726 
-0.474171 0.086063 -0.044081 -0.171752 0.449121 0.071656 -0.340117 0.273005 -0.055137 
-0.692057 -0.280355 -0.220623 -0.662319 -0.216106 -0.236814 -0.519229 -0.060765 0.074473 
-0.126969 0.708544 -0.062712 -0.086402 0.690003 -0.047522 -0.501115 0.016575 0.038079 
-0.378418 0.163824 0.132632 -0.054521 0.713375 -0.099584 -0.45638 0.15127 0.081081 
-0.42161 0.156884 -0.044845 -0.35314 0.288074 0.017536 -0.118314 0.746025 -0.068412 

POLYGONS 501 1500
OFFSETS vtktypeint64
0 3 6 9 12 15 18 21 24 
27 30 33 36 39 42 45 48 51 
54 57 60 63 66 69 72 75 78 
81 84 87 90 93 96 99 102 105 
108 111 114 117 120 123 126 129 132 
135 138 141 144 147 150 153 156 159 
162 165 168 171 174 177 180 183 186 
189 192 195 198 201 204 207 210 213 
216 219 222 225 228 231 234 237 240 
243 246 249 252 255 258 261 264 267 
270 273 276 279 282 285 288 291 294 
297 300 303 306 309 312 315 318 321 
324 327 330 333 336 339 342 345 348 
351 354 357 360 363 366 369 372 375 
378 381 384 387 390 393 396 399 402 
405 408 411 414 417 420 423 426 429 
432 435 438 441 444 447 450 453 456 
459 462 465 468 471 474 477 480 483 
486 489 492 495 498 501 504 507 510 
513 516 519 522 525 528 531 534 537 
540 543 546 549 552 555 558 561 564 
567 570 573 576 579 582 585 588 591 
594 597 600 603 606 609 612 615 618 
621 624 627 630 633 636 639 642 645 
648 651 654 657 660 663 666 669 672 
675 678 681 684 687 690 693 696 699 
702 705 708 711 714 717 720 723 726 
729 732 735 738 741 744 747 750 753 
756 759 762 765 768 771 774 777 780 
783 786 789 792 795 798 801 804 807 
810 813 816 819 822 825 828 831 834 
837 840 843 846 849 852 855 858 861 
864 867 870 873 876 879 882 885 888 
891 894 897 900 903 906 909 912 915 
918 921 924 927 930 933 936 939 942 
945 948 951 954 957 960 963 966 969 
972 975 978 981 984 987 990 993 996 
999 1002 1005 1008 1011 1014 1017 1020 1023 
1026 1029 1032 1035 1038 1041 1044 1047 1050 
1053 1056 1059 1062 1065 1068 1071 1074 1077 
1080 1083 1086 1089 1092 1095 1098 1101 1104 
1107 1110 1113 1116 1119 1122 1125 1128 1131 
1134 1137 1140 1143 1146 1149 1152 1155 1158 
1161 1164 1167 1170 1173 1176 1179 1182 1185 
1188 1191 1194 1197 1200 1203 1206 1209 1212 
1215 1218 1221 1224 1227 1230 1233 1236 1239 
1242 1245 1248 1251 1254 1257 1260 1263 1266 
1269 1272 1275 1278 1281 1284 1287 1290 1293 
1296 1299 1302 1305 1308 1311 1314 1317 1320 
1323 1326 1329 1332 1335 1338 1341 1344 1347 
1350 1353 1356 1359 1362 1365 1368 1371 1374 
1377 1380 1383 1386 1389 1392 1395 1398 1401 
1404 1407 1410 1413 1416 1419 1422 1425 1428 
1431 1434 1437 1440 1443 1446 1449 1452 1455 
1458 1461 1464 1467 1470 1473 1476 1479 1482 
1485 1488 1491 1494 1497 1500 
CONNECTIVITY vtktypeint64
105 106 121 227 230 242 91 85 106 
91 106 105 103 111 104 104 111 124 
124 110 144 110 121 144 147 142 133 
148 152 147 214 133 223 147 133 214 
190 147 214 179 227 162 179 191 227 
214 223 230 223 246 230 190 214 230 
192 190 202 202 190 230 202 230 227 
40 27 37 22 40 63 40 37 63 
75 22 63 58 22 75 37 55 70 
70 55 65 154 131 130 115 113 160 
117 116 131 112 116 117 112 102 116 
117 131 154 135 117 154 109 112 117 
115 98 113 98 115 102 112 96 102 
102 96 98 93 98 96 81 67 99 
67 84 99 81 72 67 78 81 93 
72 81 78 67 56 84 60 52 78 
52 72 78 52 43 72 72 56 67 
10 6 29 2 6 10 5 6 2 
9 3 18 151 167 185 178 165 186 
201 122 178 220 122 201 167 157 153 
167 151 157 178 122 165 10 20 11 
8 0 4 204 215 226 169 215 204 
204 226 209 188 216 193 153 169 167 
167 204 185 204 167 169 188 182 205 
13 11 20 0 11 13 0 13 4 
21 4 13 188 205 216 21 13 20 
130 220 228 131 220 130 184 173 182 
31 43 52 43 30 72 44 54 48 
32 42 61 61 42 60 31 52 42 
42 52 60 30 49 56 72 30 56 
77 61 60 56 59 84 86 83 93 
60 78 77 77 78 93 83 77 93 
86 93 96 98 93 81 99 84 100 
95 112 109 95 86 96 95 96 112 
98 81 99 98 99 107 99 100 107 
98 107 113 118 109 117 118 117 135 
160 113 108 140 137 135 140 135 177 
118 135 137 128 127 150 129 123 165 
122 129 165 116 123 129 123 115 149 
116 115 123 102 115 116 122 116 129 
122 131 116 20 10 29 21 20 29 
11 2 10 11 0 2 0 5 2 
0 8 5 8 4 21 215 240 241 
226 215 241 209 226 241 231 209 241 
194 203 231 211 194 231 215 169 211 
169 153 211 231 203 209 185 209 208 
185 204 209 186 195 178 186 228 195 
201 195 243 201 178 195 207 216 205 
205 182 207 182 193 184 182 188 193 
211 153 194 194 222 203 153 157 194 
131 122 220 34 21 29 43 25 30 
24 25 43 16 43 31 16 24 43 
64 24 32 15 32 24 15 24 16 
32 44 42 48 42 44 48 31 42 
32 15 44 44 15 54 17 16 26 
15 16 17 26 16 48 53 17 26 
18 3 14 7 9 18 34 8 21 
3 12 14 3 1 12 1 9 7 
9 1 3 243 224 251 247 251 224 
16 31 48 196 181 219 225 181 196 
210 181 225 196 162 225 232 172 238 
172 198 238 198 172 200 155 206 174 
71 75 88 94 103 104 110 97 121 
147 190 170 70 63 37 71 58 75 
70 65 79 70 79 82 82 79 80 
82 80 90 76 70 82 87 63 76 
75 63 87 90 80 91 90 91 97 
90 97 114 87 76 82 87 82 90 
75 87 88 91 105 97 103 90 114 
87 90 103 88 87 103 94 88 103 
97 105 121 103 114 111 114 97 110 
110 111 114 111 110 124 170 148 147 
170 146 148 148 146 171 192 170 190 
171 175 191 152 148 171 152 171 179 
179 171 191 191 175 202 191 202 227 
63 70 76 155 168 206 158 143 163 
163 155 158 160 126 161 172 166 200 
172 156 166 166 156 200 138 128 143 
128 142 143 128 150 161 108 126 160 
139 137 156 137 140 156 121 118 137 
107 100 108 113 107 108 106 109 118 
106 95 109 100 89 92 84 59 89 
84 89 100 85 86 95 198 217 238 
232 176 172 163 162 168 168 162 196 
163 179 162 133 161 180 161 126 180 
180 144 199 199 144 232 144 176 232 
176 139 172 163 152 179 142 152 163 
143 142 163 142 147 152 142 128 133 
133 128 161 126 124 180 180 124 144 
144 139 176 121 139 144 121 137 139 
108 124 126 108 101 124 100 101 108 
101 104 124 106 118 121 101 94 104 
92 101 100 92 94 101 85 95 106 
89 94 92 74 94 89 79 77 80 
80 86 85 80 83 86 80 77 83 
73 69 68 79 51 77 168 155 163 
139 156 172 208 229 237 212 237 249 
234 212 249 239 234 249 5 33 39 
39 74 41 53 68 57 210 225 229 
225 245 229 206 168 235 236 232 238 
236 238 250 245 248 237 245 237 229 
225 242 245 219 235 196 248 236 250 
46 19 38 35 1 19 46 38 50 
45 28 51 28 36 47 47 36 25 
28 23 36 36 23 62 39 33 74 
38 14 50 45 51 66 47 24 51 
28 47 51 62 49 36 33 62 74 
57 68 69 208 222 229 183 237 212 
164 212 234 221 234 239 221 145 234 
233 221 239 218 189 233 187 210 222 
141 210 187 157 141 187 157 138 141 
212 164 183 127 151 164 145 160 234 
135 154 217 154 130 186 173 177 207 
138 151 127 138 157 151 150 127 164 
149 160 145 149 115 160 240 231 241 
217 189 218 154 165 217 59 74 89 
51 64 77 64 61 77 26 73 68 
41 74 59 34 41 59 62 59 49 
62 34 59 33 34 62 24 64 51 
61 64 32 26 48 54 26 54 73 
54 69 73 54 17 69 53 26 68 
34 29 41 29 6 41 5 39 6 
25 36 49 30 25 49 47 25 24 
14 12 35 12 1 35 38 18 14 
17 57 69 53 57 17 7 18 38 
5 8 33 33 8 34 7 38 19 
7 19 1 56 49 59 15 17 54 
35 19 27 22 23 28 236 199 232 
180 199 223 223 199 236 133 180 223 
162 227 242 225 162 242 235 168 196 
246 223 236 230 246 248 245 230 248 
230 245 242 246 236 248 27 19 46 
27 45 35 35 45 50 27 46 37 
27 40 45 40 22 28 40 28 45 
62 23 58 23 22 58 37 46 55 
55 46 50 55 50 65 50 45 66 
50 66 65 62 58 71 66 51 79 
65 66 79 74 62 71 94 74 71 
94 71 88 85 91 80 247 243 251 
201 243 247 195 244 243 195 228 244 
228 224 244 220 201 247 211 231 240 
222 208 209 203 222 209 183 185 208 
189 221 233 220 224 228 224 220 247 
216 207 213 213 193 216 184 193 213 
182 173 207 157 187 222 164 151 183 
151 185 183 149 145 221 149 221 123 
123 221 189 165 189 217 165 123 189 
165 154 186 186 130 228 215 211 240 
194 157 222 249 237 248 250 249 248 
239 249 250 219 206 235 222 210 229 
250 233 239 233 250 238 218 233 238 
219 174 206 217 218 238 207 200 213 
207 198 200 177 198 207 200 184 213 
158 155 174 181 174 219 141 181 210 
141 158 181 141 143 158 160 164 234 
161 164 160 161 150 164 135 198 177 
198 135 217 173 140 177 156 184 200 
156 140 184 184 140 173 141 138 143 
127 128 138 146 170 134 134 170 192 
171 146 136 171 136 175 175 197 192 
175 192 202 134 120 146 120 136 146 
120 119 136 175 132 197 134 192 197 
175 136 132 132 159 197 120 125 119 
125 120 134 159 125 134 119 159 132 
136 119 132 197 159 134 244 224 243 
125 159 119 14 35 50 183 208 237 
6 39 41 181 158 174 
POINT_DATA 252
SCALARS k float
LOOKUP_TABLE default
0.550405 0.501445 0.0997016 0.544161 0.538873 0.374678 0.169337 0.067471 0.305404 
3.75149 -0.0172219 0.912237 0.36985 2.77814 -0.357459 -0.204829 1.20906 0.11349 
1.56056 -0.171594 1.37803 -0.0442425 0.399219 0.331254 -0.49418 0.353042 0.254521 
-0.0356836 -0.094649 -0.257903 0.446176 0.082733 -0.381106 0.909755 -0.694762 -1.20884 
-0.466917 0.136809 -0.139938 0.724741 0.150842 -1.01805 -1.06058 -0.502135 -0.728871 
-0.660071 0.600894 -0.516526 -0.208506 0.203542 -0.4779 -1.17225 -0.194214 1.25312 
-1.41115 -0.0785506 0.218756 0.60472 0.216861 -1.44377 -0.0921103 -0.0528885 -3.50746 
0.176642 -0.400512 -0.736428 -0.394307 0.162707 3.79055 1.25998 0.262416 0.192001 
0.151301 0.245579 -0.780846 0.272615 -0.0343556 -0.948699 0.193083 -1.01455 -0.133685 
-0.054214 -0.801914 -0.653526 0.253363 0.207192 0.406529 -0.0183903 0.230387 0.146787 
0.0345222 0.203982 0.122954 -0.90877 0.208441 0.242392 0.317132 0.220595 -0.396455 
0.213081 0.116804 0.0599569 0.19274 0.0491717 0.0754495 0.193939 0.252288 -0.216619 
-0.844652 0.188478 0.00600421 0.0766112 0.169193 -0.246328 0.200011 -0.217957 -0.731312 
-1.25345 0.173455 3.54884 0.655973 0.339343 0.209475 0.468361 -0.611153 0.945998 
-0.449405 0.341787 -0.0552263 -0.387796 0.100735 0.325527 0.131083 0.41085 0.480301 
-1.80531 -0.56834 -0.928878 0.171962 -0.817739 0.119781 -0.694573 0.444406 -0.280013 
-0.251735 0.0164576 -0.834903 -1.39184 -0.340452 0.0968988 0.624322 -1.04918 -0.0240095 
-0.124079 -1.30667 1.32067 0.310984 -1.17941 -0.996208 0.719548 -0.544324 -1.5407 
-0.935 -1.05359 -1.35538 -2.10589 0.205086 0.677723 1.0018 0.952628 0.513113 
-0.788031 -0.421627 -0.636591 0.84086 -0.33015 0.464334 -0.290655 -0.235478 -0.199461 
-0.951015 -1.37587 -0.219058 -0.100042 0.700957 0.514225 -0.296649 1.03691 3.39421 
0.350708 -0.368613 0.347082 0.952629 0.642493 -1.08727 -0.823495 0.100886 0.376477 
-1.67615 -0.0235442 -0.254817 1.29484 -1.03075 -1.2134 0.773167 1.26083 1.50392 
-1.11545 -0.664493 -0.264117 -0.34179 0.0384988 -0.227642 0.276411 0.128056 0.331102 
1.28577 0.294679 0.383527 1.3614 0.374362 0.204423 -1.53868 -0.309049 3.48443 
-1.36291 0.778576 -0.168739 -1.52866 0.346256 -0.211918 0.250472 0.333558 -0.04843 
-0.284609 1.44506 -0.178319 -0.0318279 0.238708 0.0725689 4.37855 0.517751 0.41297 
1.03275 0.373799 -0.171237 0.131662 -0.137635 0.392188 -0.0472364 0.0873962 1.61222 

FIELD FieldData 7
h 1 252 float
0.590962 0.852984 2.32499 4.20461 2.90439 1.08365 1.54833 2.42436 2.14584 
0.957007 2.44556 0.90852 -1.00411 1.2638 -5.23224 0.856461 3.46633 0.749381 
-1.36989 1.39872 2.79968 0.413 2.26718 0.0129986 0.555519 2.81244 -0.948907 
3.56466 0.527992 0.505891 1.49051 -0.346607 0.10773 1.25149 -1.4129 0.516605 
1.56743 2.37093 -0.389467 2.11447 2.62197 1.11685 0.634857 1.27167 -4.90211 
-0.308158 1.71565 0.598616 -0.79987 4.09268 0.456571 1.08964 0.271403 8.89548 
-1.24207 -1.38656 0.34411 -0.712073 2.50373 0.913174 -0.0533646 -2.52389 1.73333 
2.27466 -0.316335 -0.444332 -3.82705 0.303476 1.4371 4.05105 1.59446 1.89817 
0.402008 3.34257 1.6288 2.25433 1.85988 -1.47499 0.239746 0.776162 1.62347 
0.283048 1.36793 1.09925 1.69626 2.35411 3.16676 1.71512 1.80687 2.18494 
1.97806 2.16322 1.65281 0.420055 1.18153 3.89889 1.36014 2.16184 0.10494 
-0.222927 2.50385 0.62846 0.555024 1.53452 0.884926 2.54841 2.55329 -0.35642 
-0.600342 4.25075 1.22192 1.15062 1.80075 -0.151688 1.76284 0.234961 0.752982 
2.48921 3.42037 0.0149729 -1.09766 1.85106 1.36424 0.802214 0.341419 1.50632 
-0.772595 1.62181 0.252391 1.16881 0.406198 1.56295 0.395518 0.598784 1.75604 
2.72149 -0.892055 1.90629 1.11802 1.51416 1.1414 1.56427 0.53924 0.262082 
0.996685 -0.219122 0.396745 1.52493 0.162289 0.158595 0.13307 -0.84545 0.0372059 
-0.288967 1.06507 1.03462 1.57345 0.686414 0.0916328 3.71339 -0.704847 -1.14043 
0.18334 -0.0216048 -1.22492 1.22726 1.5182 0.307164 1.00476 0.00654924 3.07033 
0.460889 2.06414 0.479757 1.43046 0.879202 1.46694 -0.945646 0.143618 1.41764 
0.518301 -0.0508149 -0.0265132 1.12316 2.28544 2.42735 -0.879812 6.51773 0.535077 
1.78571 0.814436 0.893249 3.14086 1.42892 0.555761 2.04316 0.469892 0.645528 
1.78862 1.53427 1.53155 0.71984 1.30428 -0.0600179 0.225168 -3.28718 9.82812 
-0.503115 1.49375 0.803432 0.285132 1.19828 1.19633 2.00685 0.696471 13.0421 
1.28405 5.22728 6.74859 0.578385 0.605219 1.48458 -0.120457 0.937934 0.639427 
0.482111 0.432376 1.20971 -1.338 1.70551 1.6988 -8.81746 2.03321 5.02045 
0.760262 0.669191 2.11664 2.46004 2.21647 2.87845 -0.575601 0.402387 1.46295 
2.47197 1.76752 1.60524 1.47037 3.50256 2.15999 3.26328 1.75087 2.45057 

kmin 1 252 float
1.37673 2.34271 5.08868 7.57452 7.77812 2.25519 2.99836 5.4654 3.87986 
2.43764 5.05109 3.13301 -0.605022 3.66517 2.26853 1.85026 6.9688 2.29156 
-0.131892 3.23714 5.87135 3.00055 3.69328 0.813656 1.71039 6.55465 -0.136252 
7.69421 2.40619 0.832769 3.51863 0.907519 0.653982 1.68228 -0.218871 1.35374 
4.32249 2.61201 0.478316 3.25183 4.2548 3.08191 2.91118 2.6134 -3.36103 
1.03429 4.17057 1.46315 0.635314 7.43423 1.22529 1.18287 1.30736 17.4928 
-0.267895 1.72675 1.22991 -0.336186 3.89702 2.87566 3.12327 -0.828053 3.87268 
2.6438 0.660682 1.66872 -1.72619 1.29488 3.26028 10.4715 2.43366 2.70816 
1.31846 7.28147 2.83766 2.93222 2.33558 -0.17003 1.13532 1.20361 1.9046 
0.750724 1.55766 1.739 4.45512 3.58851 6.51585 1.87636 2.30357 5.63458 
2.22135 2.79555 3.39571 0.653835 1.59812 7.66039 2.21289 2.58773 0.428777 
0.27759 6.02994 1.36904 0.773467 1.81914 1.24172 3.72609 4.25934 -0.0792508 
0.391736 8.01084 1.73946 1.60447 3.30109 0.440576 1.89166 0.737886 1.3717 
4.82202 6.32987 2.40315 0.894016 2.42278 2.2208 1.2049 1.08051 3.24125 
0.600758 3.8611 0.480418 1.79608 2.17234 3.37492 2.05418 2.16321 4.4604 
5.80654 0.333586 4.03934 2.04424 2.23248 2.77438 2.72985 1.3813 1.1727 
1.38226 0.658288 1.32435 4.74591 1.14084 0.986154 0.610031 0.798736 0.734559 
0.4683 3.20984 2.4434 3.80665 1.49514 0.532993 7.75551 0.588608 0.23741 
1.78062 0.82427 -0.450628 2.09695 1.70304 1.47703 2.00898 0.677502 6.82387 
3.49118 2.71519 2.20861 2.66492 1.29192 1.53728 0.805753 1.54516 3.6959 
1.01372 2.053 1.14752 3.36769 5.39491 5.6772 1.24379 9.78729 1.47106 
3.32789 2.2168 1.67319 7.00066 3.43691 0.771981 3.35121 1.10078 1.44532 
5.14306 2.22498 3.53943 2.12286 2.93444 0.404512 1.44184 0.862808 15.3485 
0.585175 3.89645 1.75362 1.26546 1.6934 2.69122 5.11113 1.4097 18.2079 
4.02303 7.30645 13.3733 1.86883 2.44343 2.5487 0.856837 1.46467 3.05735 
0.911259 1.66079 2.78546 1.37936 2.98866 2.97995 -1.01605 2.87922 10.1766 
1.30199 2.12705 3.40615 4.90023 3.49529 5.92679 0.0244706 2.07329 2.70059 
4.89054 4.10504 2.88704 2.19212 6.58136 3.54986 6.72039 2.76027 4.55411 

kmax 1 252 float
-0.194806 -0.636737 -0.438691 0.834696 -1.96933 -0.0878923 0.0983033 -0.616674 0.41183 
-0.523622 -0.159969 -1.31597 -1.40319 -1.13756 -12.733 -0.137333 -0.0361377 -0.792796 
-2.60788 -0.439699 -0.271977 -2.17455 0.841073 -0.787659 -0.599351 -0.929776 -1.76156 
-0.564884 -1.35021 0.179013 -0.537607 -1.60073 -0.438521 0.820704 -2.60693 -0.320528 
-1.18763 2.12986 -1.25725 0.977101 0.989131 -0.848213 -1.64147 -0.0700661 -6.44318 
-1.6506 -0.739274 -0.265914 -2.23505 0.751141 -0.31215 0.996402 -0.764555 0.298196 
-2.21624 -4.49988 -0.541694 -1.08796 1.11044 -1.04932 -3.23 -4.21973 -0.406021 
1.90553 -1.29335 -2.55738 -5.92791 -0.687931 -0.386082 -2.36937 0.755253 1.08818 
-0.514443 -0.596341 0.419948 1.57644 1.38419 -2.77995 -0.655825 0.348717 1.34234 
-0.184628 1.1782 0.459501 -1.06261 1.11971 -0.182336 1.55389 1.31018 -1.2647 
1.73477 1.5309 -0.090089 0.186275 0.764943 0.137397 0.507393 1.73595 -0.218898 
-0.723444 -1.02225 -0.112117 0.33658 1.2499 0.528132 1.37074 0.847249 -0.633589 
-1.59242 0.490649 0.704384 0.696781 0.300418 -0.743952 1.63402 -0.267965 0.13426 
0.156403 0.51087 -2.3732 -3.08933 1.27933 0.507683 0.39953 -0.39767 -0.2286 
-2.14595 -0.617483 0.0243639 0.541536 -1.35994 -0.249019 -1.26314 -0.965641 -0.948328 
-0.363555 -2.1177 -0.226756 0.191813 0.795833 -0.491583 0.398678 -0.302816 -0.648534 
0.611111 -1.09653 -0.530861 -1.69605 -0.816263 -0.668964 -0.34389 -2.48964 -0.660147 
-1.04623 -1.0797 -0.374168 -0.65974 -0.122314 -0.349728 -0.328727 -1.9983 -2.51828 
-1.41394 -0.86748 -1.99921 0.357566 1.33336 -0.862706 0.000550869 -0.664403 -0.683205 
-2.5694 1.41308 -1.2491 0.195991 0.466488 1.39661 -2.69705 -1.25793 -0.860623 
0.022883 -2.15463 -1.20055 -1.12138 -0.824036 -0.822498 -3.00341 3.24816 -0.400901 
0.243534 -0.587929 0.11331 -0.718938 -0.579072 0.339542 0.735116 -0.160994 -0.154264 
-1.56581 0.843563 -0.476341 -0.683182 -0.325871 -0.524548 -0.9915 -7.43717 4.30778 
-1.59141 -0.908955 -0.146754 -0.695192 0.703148 -0.298557 -1.09743 -0.0167588 7.87631 
-1.45493 3.14811 0.123834 -0.712062 -1.23299 0.420464 -1.09775 0.411201 -1.7785 
0.0529631 -0.796035 -0.366042 -4.05537 0.422353 0.417637 -16.6189 1.18721 -0.135707 
0.218532 -0.788664 0.82713 0.0198436 0.937658 -0.169893 -1.17567 -1.26851 0.225308 
0.0533871 -0.570006 0.323433 0.748626 0.423764 0.770112 -0.193835 0.741465 0.347026 

hks 16 252 double
0.69732341212 0.70992513688 0.7226210185 0.73539714987 0.74823956955 0.76113432601 0.77406753142 0.78702540233 0.79999428507 
0.81296066367 0.82591114897 0.83883244795 0.85171131319 0.86453447278 0.87728854211 0.88995991913 0.88694729765 0.89446800921 
0.90161445317 0.90839057685 0.91480129162 0.92085220182 0.92654934915 0.9318989759 0.93690730943 0.94158036887 0.94592379451 
0.94994269918 0.95364154086 0.95702401531 0.96009296742 0.96285032001 0.6745501301 0.686460496 0.69852417348 0.71072448892 
0.72304431287 0.73546622182 0.74797264989 0.76054602465 0.77316888228 0.78582395764 0.79849424597 0.8111630341 0.82381390008 
0.83643068144 0.8489974134 0.86149823954 0.94088661738 0.94768440158 0.95409153842 0.96011463082 0.96576111312 0.97103896564 
0.97595644852 0.9805218578 0.98474330553 0.98862852475 0.99218469887 0.99541831484 0.99833503873 1.0009396123 1.003235769 
1.0052261681 0.72609566612 0.73692046598 0.74797890379 0.7592577672 0.77074194943 0.78241464871 0.79425759115 0.80625126764 
0.81837517497 0.83060805127 0.84292809667 0.85531317071 0.86774095943 0.88018910673 0.89263530603 0.90505735047 0.54963278558 
0.55902089527 0.56866488556 0.5785476961 0.58865105209 0.59895572758 0.60944180598 0.62008892901 0.63087652629 0.64178401839 
0.65279098784 0.66387731374 0.67502326712 0.68620956607 0.69741739085 0.70862836098 0.54468144779 0.55408234627 0.56371389163 
0.57356275079 0.58361428415 0.59385272905 0.60426139344 0.61482285283 0.62551914319 0.63633194289 0.64724273724 0.65823296002 
0.66928410728 0.68037782018 0.69149593463 0.70262049718 0.8998876402 0.90736923334 0.91447495669 0.92120828965 0.92757372038 
0.93357647775 0.93922227682 0.94451708175 0.94946688842 0.95407752818 0.95835449322 0.96230278337 0.96592677359 0.96923010128 
0.9722155723 0.97488508457 0.58090921688 0.59022581312 0.59982017484 0.60967688291 0.61977874188 0.63010703185 0.64064177626 
0.65136201605 0.66224608047 0.67327184515 0.68441696882 0.69565910095 0.70697605409 0.71834593632 0.72974724072 0.74115889088 
0.99832746095 1.0040119576 1.009325886 1.0142761308 1.0188703545 1.023116711 1.0270235758 1.030599299 1.0338519803 
1.0367892697 1.0394181921 1.041744997 1.0437750311 1.0455126334 1.0469610502 1.0481223706 0.71312696514 0.72386448564 
0.73483861126 0.74603602099 0.75744148612 0.76903807587 0.78080738651 0.79272978444 0.80478465308 0.81695063359 0.82920585011 
0.84152811094 0.85389507858 0.86628440296 0.87867381418 0.89104117275 0.75511308571 0.76759806626 0.78018288038 0.79285614787 
0.80560621159 0.81842113885 0.83128872282 0.84419648283 0.85713166209 0.8700812212 0.88303182564 0.89596982566 0.90888122685 
0.92175165042 0.9345662822 0.94730981004 0.85350450794 0.86148032733 0.86908160687 0.87631132798 0.88317352184 0.88967300543 
0.89581513123 0.90160555407 0.90705001741 0.91215416043 0.91692334621 0.92136251071 0.9254760319 0.92926761792 0.9327402133 
0.93589592207 0.76318424406 0.77530555183 0.78754116539 0.79988206117 0.81231849251 0.8248399814 0.83743532309 0.85009260133 
0.86279921181 0.87554189048 0.88830674308 0.90107927237 0.91384439939 0.92658647561 0.93928928319 0.95193602138 0.78771777051 
0.79646447623 0.80485998951 0.81290360165 0.82059581161 0.82793809665 0.83493268985 0.84158236831 0.8478902548 0.85385963464 
0.85949378856 0.86479584219 0.86976863181 0.87441458605 0.87873562309 0.88273306271 0.51347853325 0.52121942426 0.52884542065 
0.53634128473 0.54369265817 0.55088601871 0.5579086249 0.56474845227 0.57139412437 0.57783484127 0.58406030832 0.5900606669 
0.59582642912 0.60134841759 0.60661771153 0.61162560006 0.48995978087 0.4976915491 0.50533348147 0.51287018912 0.52028690347 
0.5275694675 0.53470431582 0.54167844568 0.54847938098 0.55509513142 0.56151414844 0.5677252798 0.57371772433 0.57948098827 
0.58500484451 0.59027929617 0.86311702975 0.87150273624 0.8794306147 0.8869001917 0.89391229151 0.90046876836 0.90657224928 
0.91222589157 0.91743315767 0.92219760927 0.9265227216 0.93041171817 0.93386742586 0.93689215015 0.93948757004 0.94165465234 
0.92613370563 0.93324285898 0.93996423268 0.94630299714 0.95226526807 0.95785782631 0.96308785404 0.96796269091 0.97248961221 
0.97667563008 0.98052731802 0.98405065809 0.98725090986 0.99013249993 0.99269893072 0.99495270736 0.66668934732 0.67615644952 
0.6853622907 0.69430054507 0.70296594214 0.71135411575 0.71946145373 0.72728495123 0.73482206998 0.74207060525 0.74902856142 
0.75569403686 0.76206511843 0.76813978564 0.77391582456 0.77939075152 0.75714232901 0.76848703801 0.78000592082 0.79168915814 
0.80352555091 0.81550259061 0.82760655134 0.83982259829 0.85213490669 0.86452678487 0.876980795 0.88947886533 0.90200238828 
0.91453229961 0.92704913492 0.93953306093 0.6635971408 0.67454400604 0.68569654901 0.69703881054 0.70855377834 0.72022358173 
0.73202968789 0.74395309237 0.75597449678 0.76807446731 0.78023356855 0.79243246815 0.80465200896 0.81687324704 0.82907745481 
0.84124609043 0.30866064727 0.30530672936 0.30198078897 0.29869099054 0.29544579364 0.29225391707 0.28912430525 0.28606609736 
0.2830885996 0.28020126022 0.2774136468 0.27473542504 0.27217633774 0.26974618295 0.26745478958 0.26531198938 0.25045829576 
0.24676972003 0.24313884023 0.23958023413 0.23610817451 0.23273658565 0.22947900685 0.22634856174 0.22335793235 0.22051933712 
0.21784451207 0.21534469487 0.21303061132 0.21091246425 0.20899992463 0.2073021248 0.26847296813 0.27043652229 0.2724869382 
0.27462479761 0.27685025719 0.27916302869 0.28156236267 0.28404703591 0.28661534281 0.28926509092 0.2919936009 0.29479771093 
0.29767378578 0.30061773065 0.30362500977 0.30669066975 0.26100891175 0.25780894559 0.25473222201 0.25179293589 0.24900415627 
0.24637779022 0.24392456808 0.24165404744 0.23957463352 0.23769361302 0.23601719877 0.23455058254 0.23329799345 0.23226275979 