# vtk DataFile Version 5.1
vtk output
ASCII
DATASET POLYDATA
POINTS 252 float
0.820632 -0.343558 -0.142433 0.78549 -0.397715 -0.1044 0.79555 -0.347456 -0.047671 
0.821583 0.278586 0.052667 0.773683 -0.297112 -0.127023 0.792678 0.37519 0.100539 
0.818248 0.298749 0.140388 0.776044 0.318855 0.170087 0.763888 -0.370088 -0.154493 
0.780145 0.287144 0.137273 0.78118 0.25986 0.069636 0.751327 0.353667 0.116225 
0.725429 0.24295 0.10821 0.739127 0.320969 0.053354 0.758197 0.249352 0.165786 
0.784065 0.266102 0.193382 0.728612 -0.420112 -0.112706 0.717207 0.274918 0.113554 
0.692514 0.196753 0.123758 0.705954 -0.412871 -0.069712 0.701627 0.293562 0.152306 
0.703771 -0.331237 -0.078643 0.685862 0.220797 0.169016 0.696483 0.26025 0.190153 
0.705471 -0.323618 -0.115229 0.666488 -0.346569 -0.150586 0.627995 0.244253 0.104782 
0.637973 -0.385128 -0.097631 0.631929 -0.285068 -0.066368 0.591715 0.21661 0.156467 
0.600847 0.188213 0.095732 0.600217 0.180743 0.121517 0.561522 -0.284243 -0.144296 
0.580271 -0.232718 -0.105054 0.61413 -0.252432 -0.148033 0.593424 -0.298858 -0.106237 
0.561827 -0.254534 -0.18386 0.470975 0.125507 0.090386 0.522295 -0.148915 -0.163221 
0.489032 -0.164271 -0.120759 0.500081 -0.165017 -0.207313 0.504414 0.149144 0.142806 
0.511423 0.199279 0.063084 0.51609 0.229012 0.12279 0.493558 -0.239873 -0.131624 
0.451127 -0.184503 -0.180682 0.419396 -0.159701 -0.027669 0.445599 0.108519 0.037325 
0.406194 0.100983 0.014023 0.430109 0.074173 0.149346 0.436102 -0.183747 -0.093504 
0.39425 -0.113446 -0.002586 0.448181 -0.086534 -0.111526 0.321449 -0.022816 0.058097 
0.459675 -0.10785 -0.174991 0.410306 0.173226 0.040996 0.418327 0.186066 0.101017 
0.399112 -0.215511 -0.097313 0.337354 -0.15158 0.059587 0.354892 -0.080187 -0.000731 
0.309463 0.087041 0.176856 0.317409 0.024127 0.176521 0.377416 -0.014505 0.089503 
0.338481 -0.04367 0.138174 0.354718 -0.084918 -0.166539 0.330831 0.153172 0.131984 
0.293203 0.155977 0.072745 0.290692 -0.205174 0.06009 0.275193 -0.198834 0.187554 
0.314588 -0.096826 0.092711 0.294117 -0.042055 0.205003 0.352571 -0.195265 -0.005399 
0.282109 -0.046968 -0.091452 0.311258 -0.17735 -0.128314 0.321951 -0.116219 -0.169145 
0.241906 -0.185087 0.208956 0.262362 -0.031795 -0.031435 0.233967 0.026885 0.036946 
0.203035 0.089348 0.133032 0.21827 -0.003647 -0.019459 0.258819 -0.222918 0.196117 
0.226906 -0.219593 0.031096 0.272002 -0.160185 0.123907 0.279357 -0.123194 0.157929 
0.245187 0.101336 0.178667 0.259355 -0.195714 -0.064668 0.234617 0.005885 0.214134 
0.206219 -0.124602 0.17912 0.266929 0.100419 0.039917 0.205658 -0.124339 -0.087355 
0.22353 -0.042463 0.22324 0.189116 -0.145214 -0.038292 0.174884 -0.071445 -0.018973 
0.215352 -0.165643 0.157712 0.179218 0.030855 0.161347 0.13229 -0.109665 -0.084173 
0.086033 -0.152401 0.008431 0.150948 0.052336 0.006797 0.169691 0.05167 -0.053784 
0.092857 -0.024343 0.148196 0.185699 -0.196521 -0.00188 0.140527 0.072035 0.087499 
0.099016 -0.098121 0.169841 0.176759 -0.188045 0.086503 0.098328 0.147715 0.042895 
0.049703 0.101367 0.115331 0.05716 -0.125283 -0.101169 0.104389 0.025852 -0.111385 
0.063251 0.08921 -0.07275 0.107891 -0.035523 -0.146641 0.024101 0.181228 -0.062898 
0.045502 -0.0464 -0.178866 0.085116 -0.151757 0.145055 -0.008612 -0.117239 0.097291 
-0.046907 0.134223 -0.124793 -0.063718 -0.124 -0.130725 0.02168 0.063066 -0.192009 
-0.026807 -0.133474 0.030315 0.014765 -0.019526 0.13298 0.021443 -0.159435 -0.014392 
-0.065359 0.13332 0.093923 -0.038979 0.164951 0.05665 -0.055437 -0.17182 0.021107 
-0.041809 0.067916 0.175675 -0.051808 -0.181523 -0.05923 -0.074072 0.198555 -0.015452 
-0.095459 -0.068929 0.149639 -0.171026 -0.181839 0.038186 -0.094797 0.212456 0.061996 
-0.098584 0.243412 -0.039289 -0.083413 -0.077983 -0.213039 -0.110204 0.286866 -0.070059 
-0.086679 0.462791 -0.00818 -0.082987 -0.019362 -0.203167 -0.106008 0.057182 -0.293737 
-0.106061 0.50926 0.024576 -0.094417 0.341688 -0.02322 -0.200756 0.108985 -0.126026 
-0.119606 0.050272 -0.211758 -0.112782 0.347076 0.045068 -0.11795 -0.143055 0.125029 
-0.102637 -0.166492 -0.048043 -0.127045 -0.173255 -0.12788 -0.132234 0.193151 -0.083225 
-0.123092 0.594643 0.033804 -0.129528 0.251744 0.014819 -0.090256 0.570732 -0.007871 
-0.11726 0.120975 0.158849 -0.146262 0.455818 0.056889 -0.170266 -0.051422 -0.229469 
-0.161348 0.436144 -0.015112 -0.144403 -0.012603 -0.249318 -0.168174 0.637714 0.061468 
-0.174572 0.348939 -0.028357 -0.119377 0.487172 -0.030968 -0.169365 0.275222 0.026257 
-0.155908 0.086442 -0.317961 -0.194247 -0.163454 -0.05811 -0.180669 0.055597 0.156932 
-0.160791 0.649095 0.008047 -0.178125 0.419028 0.020254 -0.199469 -0.119891 -0.168456 
-0.18267 0.241922 -0.046571 -0.155515 0.209342 0.053937 -0.173579 0.057858 -0.395937 
-0.129271 -0.014457 0.16739 -0.204705 -0.179006 0.086334 -0.202496 0.057195 -0.248385 
-0.180425 0.537714 0.031889 -0.174903 0.222306 0.007787 -0.181928 -0.011112 -0.232935 
-0.190524 0.279017 -0.011901 -0.189662 0.159922 0.117601 -0.176008 0.591094 -0.040157 
-0.233835 0.025998 -0.337643 -0.240979 -0.034509 -0.20438 -0.223984 -0.090502 -0.138346 
-0.155032 0.074775 -0.215124 -0.221489 0.075143 -0.328545 -0.203233 0.18435 -0.081547 
-0.17581 0.535532 -0.013388 -0.291261 0.095139 -0.377747 -0.231054 0.593392 0.032885 
-0.269853 -0.164315 -0.034245 -0.290968 0.038755 0.111887 -0.225134 0.131572 0.086525 
-0.244039 0.196271 0.025427 -0.242403 0.077662 -0.418491 -0.297329 -0.208 0.066297 
-0.313842 0.087677 -0.099154 -0.195088 0.008935 -0.369367 -0.239998 0.050071 -0.196997 
-0.307793 -0.098911 -0.049143 -0.271911 -0.162391 0.154413 -0.284705 -0.050738 0.186038 
-0.256604 0.021519 0.160274 -0.23049 -0.092759 0.176251 -0.290588 0.145216 0.005911 
-0.321753 0.059773 -0.456739 -0.316634 0.007832 -0.127183 -0.304681 0.108378 -0.461367 
-0.324708 0.044225 -0.393145 -0.316822 0.140644 -0.046388 -0.36452 -0.027316 -0.085281 
-0.361661 -0.023033 0.02 -0.355386 0.031196 0.032659 -0.366 0.081628 0.028733 
-0.359175 0.082097 -0.382623 -0.365971 0.119803 -0.420643 -0.372589 -0.133782 0.005121 
-0.370325 -0.005792 0.108844 -0.348602 -0.041222 -0.038992 -0.420094 0.108499 -0.463056 
-0.420555 0.152586 -0.35116 -0.360292 -0.09687 0.209548 -0.350241 -0.195955 0.148282 
-0.411533 0.053923 -0.35411 -0.478558 -0.101484 0.061645 -0.402334 0.106649 -0.307222 
-0.461914 -0.254892 0.176017 -0.424528 0.060695 -0.45009 -0.487517 -0.063294 0.102961 
-0.465738 -0.18025 0.043403 -0.45789 0.09171 -0.358108 -0.46196 -0.180102 0.237993 
-0.50498 -0.127242 0.045152 -0.48688 -0.050184 0.180138 -0.461512 -0.055982 0.146153 
-0.433329 -0.237919 0.113678 -0.540538 -0.207201 0.044163 -0.501017 -0.28611 0.126493 
-0.547163 -0.052738 0.202686 -0.532857 -0.138468 -0.006356 -0.496632 -0.118005 0.239031 
-0.5824 -0.242684 0.138977 -0.526997 -0.044522 0.11247 -0.630437 -0.111103 0.029873 
-0.608662 -0.143588 0.220357 -0.547132 -0.194479 0.223148 -0.645377 -0.057842 0.088721 
-0.633116 -0.16665 0.029241 -0.689131 -0.092632 0.195337 -0.660474 -0.217084 0.106017 
-0.592433 -0.022428 0.136499 -0.628572 -0.189284 0.174218 -0.593638 -0.059182 0.179798 
-0.675319 -0.193953 0.195359 -0.729523 -0.158059 0.077742 -0.708256 -0.178388 0.154439 
-0.727621 -0.107205 0.134005 -0.706358 -0.052251 0.109882 -0.707764 -0.113229 0.04427 

POLYGONS 501 1500
OFFSETS vtktypeint64
0 3 6 9 12 15 18 21 24 
27 30 33 36 39 42 45 48 51 
54 57 60 63 66 69 72 75 78 
81 84 87 90 93 96 99 102 105 
108 111 114 117 120 123 126 129 132 
135 138 141 144 147 150 153 156 159 
162 165 168 171 174 177 180 183 186 
189 192 195 198 201 204 207 210 213 
216 219 222 225 228 231 234 237 240 
243 246 249 252 255 258 261 264 267 
270 273 276 279 282 285 288 291 294 
297 300 303 306 309 312 315 318 321 
324 327 330 333 336 339 342 345 348 
351 354 357 360 363 366 369 372 375 
378 381 384 387 390 393 396 399 402 
405 408 411 414 417 420 423 426 429 
432 435 438 441 444 447 450 453 456 
459 462 465 468 471 474 477 480 483 
486 489 492 495 498 501 504 507 510 
513 516 519 522 525 528 531 534 537 
540 543 546 549 552 555 558 561 564 
567 570 573 576 579 582 585 588 591 
594 597 600 603 606 609 612 615 618 
621 624 627 630 633 636 639 642 645 
648 651 654 657 660 663 666 669 672 
675 678 681 684 687 690 693 696 699 
702 705 708 711 714 717 720 723 726 
729 732 735 738 741 744 747 750 753 
756 759 762 765 768 771 774 777 780 
783 786 789 792 795 798 801 804 807 
810 813 816 819 822 825 828 831 834 
837 840 843 846 849 852 855 858 861 
864 867 870 873 876 879 882 885 888 
891 894 897 900 903 906 909 912 915 
918 921 924 927 930 933 936 939 942 
945 948 951 954 957 960 963 966 969 
972 975 978 981 984 987 990 993 996 
999 1002 1005 1008 1011 1014 1017 1020 1023 
1026 1029 1032 1035 1038 1041 1044 1047 1050 
1053 1056 1059 1062 1065 1068 1071 1074 1077 
1080 1083 1086 1089 1092 1095 1098 1101 1104 
1107 1110 1113 1116 1119 1122 1125 1128 1131 
1134 1137 1140 1143 1146 1149 1152 1155 1158 
1161 1164 1167 1170 1173 1176 1179 1182 1185 
1188 1191 1194 1197 1200 1203 1206 1209 1212 
1215 1218 1221 1224 1227 1230 1233 1236 1239 
1242 1245 1248 1251 1254 1257 1260 1263 1266 
1269 1272 1275 1278 1281 1284 1287 1290 1293 
1296 1299 1302 1305 1308 1311 1314 1317 1320 
1323 1326 1329 1332 1335 1338 1341 1344 1347 
1350 1353 1356 1359 1362 1365 1368 1371 1374 
1377 1380 1383 1386 1389 1392 1395 1398 1401 
1404 1407 1410 1413 1416 1419 1422 1425 1428 
1431 1434 1437 1440 1443 1446 1449 1452 1455 
1458 1461 1464 1467 1470 1473 1476 1479 1482 
1485 1488 1491 1494 1497 1500 
CONNECTIVITY vtktypeint64
22 23 29 146 154 180 173 146 180 
6 5 7 5 13 11 13 9 11 
6 7 15 9 6 14 9 14 7 
30 37 42 17 14 12 9 7 11 
23 7 20 7 17 20 6 15 14 
15 7 23 14 15 23 22 14 23 
23 20 29 146 173 159 159 173 182 
180 182 173 135 146 144 148 144 168 
144 152 168 180 168 182 148 135 144 
160 148 168 144 146 159 152 144 159 
152 159 182 168 152 182 32 44 45 
40 32 45 36 32 40 34 36 40 
190 151 174 201 216 220 220 198 201 
198 190 201 174 201 190 187 164 190 
198 220 212 208 198 212 200 198 208 
187 198 200 187 190 198 16 1 19 
27 16 19 16 27 25 8 1 16 
0 2 1 25 27 32 8 16 25 
24 8 25 0 1 8 4 0 8 
36 25 32 34 25 36 137 191 189 
177 191 137 116 138 114 222 228 229 
232 222 229 192 183 209 183 188 209 
183 127 188 157 127 183 157 141 127 
142 141 157 124 127 141 124 122 127 
119 122 124 85 100 91 85 81 100 
85 71 81 71 67 81 73 57 71 
57 46 71 157 183 176 106 119 124 
96 119 106 95 96 106 89 85 91 
176 183 192 175 176 192 109 95 106 
115 124 141 115 106 124 73 71 85 
57 50 46 243 226 235 47 48 42 
84 78 94 165 147 158 128 145 169 
43 42 56 56 42 55 128 169 163 
185 163 169 12 18 30 18 31 30 
30 31 37 37 31 41 42 37 47 
41 56 49 37 41 49 65 56 66 
56 55 66 65 66 78 105 121 120 
120 121 128 120 128 147 147 128 163 
147 163 172 172 163 185 49 56 65 
49 65 60 84 60 65 65 78 84 
105 120 123 147 172 158 185 158 172 
61 60 86 86 84 94 165 120 147 
60 84 86 136 132 135 132 136 150 
154 132 150 136 135 139 145 136 139 
150 136 153 227 221 235 226 227 235 
226 210 227 227 210 221 214 194 210 
194 195 210 113 118 126 102 118 113 
102 99 118 239 243 235 210 205 221 
184 205 210 195 184 210 77 101 99 
77 97 101 62 49 63 205 184 206 
53 77 88 53 47 62 47 53 48 
197 202 206 98 108 97 88 48 53 
110 104 97 202 189 206 73 85 89 
45 50 57 44 39 45 33 39 44 
161 157 176 142 157 161 74 73 89 
74 45 73 73 45 57 39 50 45 
38 52 39 38 54 52 34 40 38 
33 38 39 33 34 38 161 149 142 
130 142 149 130 115 142 64 54 74 
54 45 74 38 40 54 151 149 170 
149 151 130 133 130 151 115 130 133 
151 170 174 134 133 151 216 218 223 
178 181 201 174 178 201 134 151 190 
220 216 223 164 134 190 54 40 45 
184 185 197 158 185 184 101 104 105 
101 105 99 78 77 94 88 77 78 
47 49 62 37 49 47 226 243 231 
184 197 206 63 49 61 49 60 61 
94 77 99 118 99 105 105 123 118 
123 120 165 165 158 195 195 158 184 
70 63 61 70 61 86 86 94 90 
90 94 99 118 123 126 123 165 126 
165 195 196 196 195 194 70 86 90 
129 131 136 129 136 145 136 131 153 
131 162 153 153 162 171 129 145 128 
145 155 169 169 155 171 185 186 197 
169 186 185 104 121 105 66 88 78 
55 88 66 55 48 88 179 197 186 
125 129 128 121 125 128 104 125 121 
104 110 125 42 48 55 197 179 202 
186 162 179 169 162 186 169 171 162 
131 143 162 129 143 131 125 143 129 
101 97 104 125 110 143 225 222 232 
217 222 225 217 209 222 209 188 228 
122 117 140 119 117 122 119 113 117 
96 113 119 103 113 96 100 103 96 
71 58 67 58 51 69 46 51 58 
71 46 58 211 209 217 192 209 211 
96 91 100 95 92 96 76 89 92 
89 91 92 51 59 69 203 192 211 
92 95 109 59 72 76 51 52 59 
189 199 203 199 192 203 92 109 107 
191 199 189 108 107 116 100 81 103 
76 72 89 191 175 199 109 116 107 
7 5 11 139 135 148 150 160 168 
140 196 193 83 63 70 63 83 69 
126 165 196 231 243 245 243 239 250 
245 243 241 241 243 250 250 249 241 
83 70 90 83 87 75 83 90 87 
87 90 102 90 99 102 140 126 196 
193 196 214 214 196 194 214 210 226 
237 231 245 237 245 241 214 224 215 
214 226 233 224 214 233 233 226 231 
233 231 237 238 233 237 237 241 246 
68 75 80 224 233 238 180 150 168 
154 150 180 135 154 146 135 132 154 
41 43 56 29 43 41 31 22 29 
18 22 31 18 14 22 12 14 18 
43 26 42 20 26 43 43 29 20 
20 17 26 17 12 26 10 9 13 
10 6 9 10 3 6 155 139 148 
145 139 155 3 10 13 5 3 13 
6 3 5 160 153 171 155 148 160 
150 153 160 31 29 41 12 30 26 
26 30 42 155 160 171 110 97 108 
202 179 189 162 143 179 143 110 114 
219 224 238 248 246 249 246 241 249 
242 246 248 242 244 246 244 237 246 
234 238 244 244 238 237 215 224 219 
193 214 215 80 75 93 82 68 80 
166 140 193 112 102 113 103 93 112 
93 102 112 93 87 102 75 87 93 
82 80 93 82 93 103 68 83 75 
114 110 108 188 193 215 82 83 68 
82 69 83 250 251 247 250 239 251 
235 236 239 225 236 235 229 228 230 
232 236 225 122 140 166 127 122 166 
232 229 240 236 232 240 240 251 236 
239 236 251 251 240 247 67 58 82 
67 82 103 67 103 81 103 112 113 
188 127 166 188 166 193 209 228 222 
229 234 242 240 229 242 240 242 247 
247 242 248 14 17 7 188 215 228 
228 215 219 228 219 230 229 230 234 
234 244 242 230 219 238 235 221 217 
113 126 140 117 113 140 58 69 82 
62 63 69 205 217 221 204 217 205 
204 211 217 69 59 53 53 62 69 
211 204 205 77 79 97 77 53 79 
53 76 79 53 59 76 189 205 206 
189 203 205 98 79 107 97 79 98 
108 98 107 179 137 189 143 137 179 
143 114 137 108 116 114 234 230 238 
217 225 235 211 205 203 79 76 92 
79 92 107 114 138 137 137 138 177 
249 250 247 216 207 218 201 181 207 
178 156 181 156 187 181 156 164 187 
156 134 164 208 212 223 223 213 208 
181 208 207 181 200 208 187 200 181 
19 28 27 21 28 19 19 2 21 
2 24 21 1 2 19 28 33 35 
32 28 35 27 28 32 24 34 28 
24 25 34 21 24 28 4 8 24 
4 24 2 2 0 4 35 33 44 
35 44 32 223 212 220 72 74 89 
46 52 51 50 39 46 39 52 46 
199 175 192 176 175 149 170 167 174 
170 149 175 149 161 176 115 141 142 
33 28 34 207 208 218 218 208 213 
218 213 223 138 134 156 138 156 177 
167 156 178 174 167 178 116 133 138 
133 134 138 156 167 177 167 170 175 
177 167 175 177 175 191 116 109 111 
116 111 133 133 111 115 52 54 64 
59 52 72 52 64 72 72 64 74 
111 109 106 111 106 115 92 91 96 
248 249 247 207 216 201 
POINT_DATA 252
SCALARS k float
LOOKUP_TABLE default
2.03459 0.541423 2.03017 2.25999 1.52491 2.0566 0.174334 -2.0169 0.305795 
-2.05319 1.3893 0.790255 0.74067 2.1722 -1.4869 1.54952 0.744923 0.224588 
0.578799 0.812345 -0.0212859 -0.715759 0.170955 0.256244 -1.25659 -0.369386 -0.182745 
0.637889 0.188132 -0.289547 -0.161325 -0.279083 -0.836256 -0.426966 -0.142527 0.739977 
0.107423 -0.324526 0.0235245 -2.01985 0.749365 -0.507734 -0.249673 0.118483 0.551311 
-1.28656 0.0772892 0.110147 0.479678 -0.232853 -0.0646822 0.0300806 0.279989 -1.42062 
0.128143 0.198265 -0.433965 0.511242 -0.0188148 -0.47591 0.0149523 -0.228071 0.00669354 
-0.180614 0.318466 0.0330561 0.424385 0.254201 0.628122 -0.704244 0.44789 -0.231191 
0.22737 -0.00572681 0.388825 1.01016 -0.735062 -2.05732 0.443988 -0.950261 2.91335 
0.353614 -1.39467 -0.848921 0.482594 0.0321828 0.103963 -0.904113 0.186526 0.424241 
0.38998 -0.40398 -1.01157 -1.15178 -0.562149 0.506463 -1.08453 -0.283129 0.56168 
-0.854961 -0.037699 -0.144195 0.0139448 -0.0906836 0.538615 -0.106749 0.00758421 -0.307147 
-0.246036 0.322206 0.577711 0.253125 0.377856 -0.878327 -0.20334 -0.527507 0.594454 
0.316852 -0.389034 -0.27697 -0.44127 -0.300962 -0.0272807 0.78244 0.379146 -0.665505 
0.000209332 -0.112627 0.0783153 -0.568944 0.701841 0.605624 0.388428 -1.08388 0.563566 
-0.398807 -0.444881 -0.211867 -1.013 0.438807 0.0300332 -0.278059 0.664369 -0.80702 
-0.0621406 -1.54107 1.0972 0.667832 0.223455 0.0122713 -0.446311 -0.881043 1.95316 
-0.103095 0.0475926 0.152155 0.13839 -0.246439 -0.186981 1.41438 -0.101091 0.44487 
-0.959152 0.00943995 0.844688 -0.426789 -0.0124311 -0.667993 -0.90866 -1.11627 -0.789043 
0.159545 0.50261 1.32935 -0.703499 -0.228241 -0.230437 -1.05175 -0.580102 -0.148738 
-0.646533 -0.484642 2.13991 0.00983834 -0.225536 -0.27911 0.426108 -0.512008 -0.107606 
-0.0503331 0.315246 0.264661 -0.255561 -0.0254707 -0.0967984 0.0478239 -0.0613233 -0.305971 
-0.0510972 -0.180248 1.47915 -0.980874 0.430894 1.04802 0.232323 -1.27391 1.04498 
-1.07009 -1.22867 -0.281227 -0.309214 -0.815022 1.80191 1.93885 -0.184166 -0.199986 
0.40922 -0.531693 2.26312 0.265773 1.14875 -0.663294 -0.785348 1.07462 0.379369 
-0.367098 -0.429368 0.157264 -0.371795 0.025327 1.18493 0.355549 1.34318 0.1639 
-0.13854 0.0598022 -0.0837562 -0.235815 0.202797 0.0260105 0.127749 0.755809 0.139408 
0.437133 -0.272553 -0.127714 1.08566 0.891265 0.26022 0.319974 0.914503 0.773415 

FIELD FieldData 7
h 1 252 float
8.52559 10.097 6.89404 9.92147 2.95258 10.1835 4.5921 4.43229 5.11482 
-0.81464 2.55552 5.32186 3.57091 6.01729 2.6013 4.21736 1.22091 1.79884 
6.05909 0.044663 4.72113 0.117832 4.10651 5.57228 -0.511768 2.08877 0.828383 
2.60546 4.22073 2.68855 1.97407 1.69308 1.14423 1.37878 -0.367854 1.59381 
5.41008 0.854002 2.18947 -1.96013 4.44715 3.86976 -1.32752 5.55525 1.50175 
1.50581 -0.287601 1.97699 0.0800949 1.95346 1.07027 -1.88451 1.2575 -1.24978 
1.03331 0.601066 1.45034 1.07795 0.914375 0.41002 1.36378 2.47601 0.963206 
1.67173 -0.935045 1.90401 3.23668 3.57791 -0.123512 0.52975 4.04782 2.34805 
-0.256594 2.05685 3.79791 -0.156577 -0.707744 -1.06154 2.16769 -1.17433 -1.53505 
2.7032 3.13087 3.19081 2.73022 2.46051 2.13901 3.11602 0.0291029 1.54259 
3.23764 2.85446 0.993618 2.78859 2.65228 1.79287 0.589385 -1.17049 -0.42361 
0.148982 1.38358 2.7137 2.65479 2.19679 3.94944 0.643211 0.957697 -0.416883 
-1.52992 2.91934 -0.675178 3.24856 3.97139 3.66459 -0.39947 1.6349 0.326233 
2.27779 1.14493 1.45263 0.102328 1.55003 2.11515 0.87149 1.05392 3.26852 
2.35612 1.22792 1.69043 1.29623 3.44715 1.49102 0.738071 3.20631 4.63143 
2.55347 -0.277711 0.0354216 -0.528843 0.794356 5.46916 0.818774 1.42449 0.155827 
1.27804 0.106555 0.449094 0.764798 0.539407 1.13789 1.93157 1.2054 1.97635 
1.37469 0.817134 0.66679 1.60485 0.906608 0.64591 3.82515 4.05551 0.893005 
0.0175696 0.820128 4.01523 0.68162 3.24146 -2.48416 0.797752 0.701444 0.0191342 
3.18982 1.65335 8.48912 0.766171 2.63037 0.802735 0.715515 -0.128704 0.0178596 
0.816409 1.63751 5.24769 0.663875 2.29375 2.27916 2.34088 -0.153783 0.97628 
-0.846931 0.61339 0.180989 1.488 6.32504 1.29192 0.814431 2.05835 3.07778 
1.04481 2.80187 0.206714 0.70922 0.569963 2.1101 -1.24365 0.17365 2.72448 
10.0128 0.36655 0.911565 2.47982 2.08847 -0.848379 1.16626 1.72669 5.98477 
2.10709 0.163737 14.4098 6.60456 0.779111 0.931411 2.80112 7.01782 5.69422 
-1.09553 2.92421 1.55767 0.629138 3.1905 4.90629 3.8432 4.34452 2.58136 
5.42945 0.276542 1.28912 4.55747 6.62627 1.53859 2.35111 2.91528 2.81269 
4.13269 9.6943 3.47802 9.06037 7.4424 13.027 7.38287 4.83736 4.02648 

kmin 1 252 float
17.6784 17.744 14.6096 26.4682 6.25343 22.7926 8.00648 9.93893 9.51941 
1.07244 8.02768 13.944 7.24658 18.1807 6.4781 8.4293 2.81442 3.84159 
12.9005 1.51423 9.4378 2.59198 9.63364 11.5919 0.606248 3.22481 2.10553 
5.64033 10.066 6.01056 4.71529 5.06684 2.3556 4.42734 0.405142 7.50548 
9.3139 3.20745 4.78758 0.124088 7.63651 8.33071 -0.550064 11.0459 4.54885 
4.00215 1.60868 4.31144 1.40888 4.02905 4.32301 0.600342 1.96965 -1.01571 
2.46558 2.30907 2.97236 3.31798 1.37595 1.32829 3.25589 4.68054 2.21325 
3.00469 1.01722 3.87411 7.09626 7.30594 1.61808 2.3305 7.39218 5.09364 
1.14739 4.6112 8.19071 1.92733 0.0501845 -0.168206 4.13459 -0.595795 -0.914516 
5.23782 6.66387 6.21028 5.85025 5.74935 3.57628 6.27414 2.09835 3.74647 
5.99328 7.68021 4.03077 5.67316 7.61158 2.90059 1.50819 -0.150688 0.376957 
1.23594 3.92686 5.30162 5.47998 4.13744 8.1837 1.22405 1.26865 0.156068 
1.33192 5.96191 1.73069 6.74015 8.25686 8.04088 3.49706 3.30439 1.11522 
5.47215 2.65438 3.14369 0.612385 3.20463 4.8584 1.81954 1.76306 7.80226 
5.08407 2.37507 4.88967 4.13472 6.80263 3.66822 3.6044 6.68087 8.80086 
7.35904 1.96705 3.33948 1.40182 2.93667 11.4624 1.47712 1.89851 2.98331 
4.1858 2.7917 1.86374 1.14533 2.90051 1.61014 5.66902 2.58278 4.75869 
4.1333 2.53233 2.98902 2.74743 1.32344 2.10126 8.92643 10.3106 3.05487 
2.008 3.10758 8.15422 1.50535 6.70809 -0.884492 3.68478 3.60974 3.23372 
8.05059 4.39572 17.7993 1.7849 6.33364 3.17679 2.61994 1.55245 2.7579 
3.68609 3.29975 12.1783 1.14557 6.30216 6.81318 6.33751 0.43068 1.6109 
1.96436 2.80952 2.73192 4.51621 13.0686 2.25179 1.48522 4.18749 7.0223 
2.78607 6.78298 1.80623 4.20677 3.3136 4.97182 -0.673516 1.53265 6.54367 
32.746 2.42814 2.64652 5.65532 5.82635 -0.596111 3.19525 3.21155 11.9797 
6.64503 0.903009 34.2015 12.8166 2.97248 2.28006 5.90728 14.0357 11.0517 
-0.123548 5.81763 3.86967 1.37277 6.96883 9.37081 7.7373 11.0773 5.28292 
10.5833 1.31761 6.7012 9.27279 11.8301 6.83534 5.5251 6.1538 5.83746 
9.68607 17.627 6.38258 17.4735 13.0154 23.073 9.80351 10.8701 9.64146 

kmax 1 252 float
-0.627191 2.44996 -0.82148 -6.62528 -0.348262 -2.42565 1.17773 -1.07436 0.710233 
-2.70172 -2.91665 -3.30026 -0.104764 -6.14616 -1.2755 0.00542438 -0.372606 -0.243905 
-0.782347 -1.4249 0.00445277 -2.35632 -1.42062 -0.447394 -1.62978 0.952729 -0.448767 
-0.429404 -1.62457 -0.633459 -0.76715 -1.68068 -0.0671423 -1.66978 -1.14085 -4.31786 
1.50627 -1.49944 -0.408646 -4.04436 1.25779 -0.591189 -2.10497 0.0646473 -1.54535 
-0.990521 -2.18389 -0.357455 -1.24869 -0.122122 -2.18246 -4.36935 0.545354 -1.48384 
-0.398961 -1.10694 -0.071685 -1.16209 0.4528 -0.508251 -0.52832 0.271492 -0.286839 
0.338774 -2.88731 -0.0660855 -0.622895 -0.150116 -1.86511 -1.271 0.703457 -0.397538 
-1.66058 -0.497501 -0.59489 -2.24049 -1.46567 -1.95486 0.200782 -1.75286 -2.15559 
0.168573 -0.402125 0.171325 -0.389816 -0.828326 0.701742 -0.0421006 -2.04014 -0.661286 
0.482002 -1.9713 -2.04354 -0.0959766 -2.30702 0.685144 -0.329425 -2.19029 -1.22418 
-0.937974 -1.15971 0.125766 -0.170407 0.256134 -0.284818 0.0623705 0.646745 -0.989834 
-4.39175 -0.123238 -3.08104 -0.243042 -0.314088 -0.711688 -4.296 -0.0345933 -0.462755 
-0.916559 -0.364532 -0.238435 -0.407729 -0.104581 -0.628093 -0.0765637 0.344771 -1.26521 
-0.371833 0.0807698 -1.5088 -1.54226 0.0916805 -0.686173 -2.12826 -0.268254 0.461987 
-2.25209 -2.52247 -3.26863 -2.45951 -1.34796 -0.524044 0.160423 0.950466 -2.67165 
-1.62973 -2.57859 -0.965553 0.384272 -1.82169 0.665642 -1.80589 -0.171977 -0.805987 
-1.38391 -0.898059 -1.65543 0.462258 0.489772 -0.809441 -1.27613 -2.19962 -1.26886 
-1.97286 -1.46732 -0.123773 -0.14211 -0.225162 -4.08383 -2.08928 -2.20685 -3.19545 
-1.67095 -1.08901 -0.821048 -0.252561 -1.0729 -1.57132 -1.18891 -1.80986 -2.72219 
-2.05327 -0.0247365 -1.68291 0.182181 -1.71467 -2.25486 -1.65575 -0.738246 0.341658 
-3.65823 -1.58274 -2.36995 -1.54022 -0.418529 0.332053 0.143638 -0.0707929 -0.866737 
-0.696447 -1.17924 -1.39281 -2.78833 -2.17368 -0.75161 -1.81379 -1.18535 -1.0947 
-12.7203 -1.69504 -0.823386 -0.695681 -1.64941 -1.10065 -0.862728 0.241837 -0.0101062 
-2.43086 -0.575535 -5.38197 0.392537 -1.41426 -0.417241 -0.305044 -2.50854e-05 0.336754 
-2.06751 0.0307991 -0.754325 -0.114492 -0.587842 0.441773 -0.0508908 -2.38831 -0.120209 
0.275633 -0.764524 -4.12296 -0.157852 1.42243 -3.75817 -0.822874 -0.323245 -0.212082 
-1.42068 1.76158 0.573456 0.647263 1.86935 2.98103 4.96223 -1.19538 -1.5885 

hks 16 252 double
1.4844068248 1.5005516175 1.5166572385 1.5327169092 1.548723304 1.5646684554 1.5805437003 1.5963396693 1.6120463181 
1.6276529993 1.6431485708 1.658521535 1.6737602038 1.688852882 1.7037880618 1.7185546217 1.369409782 1.3893498868 
1.4091035061 1.4286621306 1.4480179757 1.4671637715 1.4860925865 1.5047976909 1.523272462 1.5415103343 1.5595047906 
1.5772493921 1.5947378421 1.6119640768 1.6289223759 1.6456074863 1.3809293136 1.3997906001 1.418538433 1.4371629556 
1.4556544462 1.4740031977 1.4921994342 1.5102332653 1.5280946798 1.5457735767 1.563259831 1.5805433891 1.5976143871 
1.6144632882 1.6310810285 1.6474591675 1.9921498387 2.0106643377 2.0284029143 2.0453694968 2.0615713297 2.0770185652 
2.0917238724 2.1057020685 2.118969777 2.1315451127 2.1434473948 2.1546968856 2.1653145531 2.175321855 2.1847405422 
2.1935924806 1.4171054123 1.4341020807 1.4511141503 1.4681262071 1.4851223873 1.5020864289 1.5190017482 1.5358515406 
1.5526189022 1.5692869697 1.5858390745 1.6022589054 1.6185306778 1.6346393008 1.6505705412 1.6663111774 1.7944413846 
1.8162587571 1.8373833365 1.857810445 1.8775381572 1.8965669784 1.9148995485 1.9325403746 1.9494955967 1.9657727836 
1.9813807594 1.9963294555 2.0106297841 2.0242935299 2.0373332537 2.0497622054 1.5151378278 1.539848662 1.5640818557 
1.5878168661 1.6110352358 1.6337204393 1.6558577504 1.6774341336 1.6984381615 1.718859958 1.7386911647 1.7579249252 
1.7765558851 1.7945801988 1.8119955401 1.8288011108 1.1945752409 1.2192517803 1.2437870279 1.2681473277 1.2923000636 
1.3162136957 1.3398578055 1.3632031534 1.3862217485 1.4088869325 1.4311734742 1.4530576718 1.4745174601 1.4955325164 
1.516084361 1.5361564474 1.2737757884 1.2945872755 1.3152918539 1.3358693033 1.3563006318 1.3765679949 1.3966546208 
1.4165447475 1.4362235765 1.4556772457 1.4748928205 1.4938583052 1.5125626698 1.5309958911 1.5491490027 1.5670141499 
1.5469843151 1.5713800829 1.5952685858 1.6186316513 1.6414532471 1.6637193028 1.6854175553 1.7065374195 1.7270698866 
1.7470074502 1.7663440564 1.7850750744 1.8031972827 1.8207088648 1.8376094094 1.8538999097 1.8678430913 1.8885625077 
1.9085516264 1.9278091263 1.9463366468 1.9641384315 1.9812209949 1.9975928172 2.0132640698 2.0282463704 2.0425525689 
2.0561965581 2.0691931085 2.081557721 2.0933064959 2.104456013 1.6863842097 1.7095588299 1.7321142454 1.7540396135 
1.7753266067 1.7959691529 1.8159631985 1.8353065007 1.85399845 1.8720399233 1.8894331641 1.9061816876 1.922290204 
1.9377645571 1.9526116709 1.9668395014 0.81369191332 0.82664771087 0.83987190688 0.85335096206 0.86707106039 0.88101815883 
0.89517801937 0.90953622492 0.92407818096 0.93878910565 0.95365401147 0.96865768162 0.98378464459 0.99901915012 1.0143451496 
1.0297462833 1.9567646912 1.9759903652 1.9944450327 2.0121318629 2.02905719 2.0452301159 2.0606621337 2.075366777 
2.0893592983 2.1026563768 2.1152758555 2.1272365051 2.1385578107 2.149259781 2.159362775 2.1688873445 1.0027621662 
1.0245858682 1.0464690409 1.0683825817 1.0902973449 1.1121842168 1.1340142021 1.1557585243 1.17738874 1.1988768644 
1.2201955089 1.2413180252 1.2622186532 1.2828726681 1.3032565235 1.3233479845 1.1538036565 1.1777883886 1.2017373931 
1.2256113737 1.2493720294 1.2729821598 1.2964057664 1.3196081536 1.3425560325 1.3652176272 1.3875627841 1.4095630818 
1.4311919407 1.4524247272 1.4732388498 1.493613843 1.158637569 1.1805210447 1.2024079489 1.2242631597 1.2460530441 
1.2677455983 1.289310566 1.3107195367 1.331946027 1.352965546 1.3737556468 1.3942959636 1.414568236 1.4345563199 
1.4542461842 1.473625894 0.88195868384 0.89924524371 0.91674119799 0.9344245463 0.95227289342 0.97026352359 0.98837347372 
1.0065796069 1.0248586869 1.043187455 1.0615427083 1.079901381 1.0982406267 1.116537902 1.1347710503 1.1529183839 
0.80477268995 0.81663481689 0.82876259335 0.84114593951 0.85377462329 0.86663827381 0.8797263737 0.89302823244 0.90653294349 
0.92022932888 0.93410587522 0.94815066571 0.9623513125 0.97669489383 0.99116790009 1.0057561922 1.1672215131 1.1889329733 
1.2106547722 1.2323505033 1.2539854304 1.2755266311 1.2969431131 1.318205904 1.3392881199 1.3601650135 1.380814006 
1.4012147028 1.4213488964 1.4412005556 1.4607558028 1.4800028786 0.82977389927 0.84397590133 0.85843067222 0.87312252706 
0.88803556451 0.90315370603 0.91846071957 0.93394023002 0.94957571888 0.96535051652 0.98124779003 0.99725052995 1.013341539 
1.0295034251 1.0457186019 1.0619692971 1.1278873318 1.1495786694 1.171313925 1.1930514886 1.2147523356 1.2363801031 
1.2579011196 1.2792843939 1.3005015751 1.3215268915 1.3423370756 1.3629112819 1.3832310021 1.4032799796 1.4230441269 
1.4425114444 0.84054410205 0.85389371784 0.86749219854 0.88132816136 0.89539000479 0.90966588156 0.9241436593 0.93881087284 
0.9536546716 0.96866176633 0.98381837897 0.99911019908 1.0145223502 1.0300393687 1.0456451967 1.0613231913 0.93838110235 
0.95706323133 0.97594679563 0.99500377486 1.0142059889 1.0335251956 1.0529331834 1.0724018602 1.0919033414 1.1114100384 
1.1308947489 1.1503307491 1.1696918875 1.1889526803 1.2080884065 1.2270752002 1.0625860704 1.0847195001 1.1068307213 
1.1288920475 1.1508770819 1.1727607235 1.194519168 1.2161299104 1.2375717508 1.2588248079 1.2798705384 1.3006917634 
1.3212726996 1.341598993 1.3616577516 1.3814375745 0.89946078575 0.91881796685 0.93843041917 0.95826262739 0.97827919903 
0.99844511498 1.0187259618 1.0390881451 1.0594990837 1.0799273839 1.1003429937 1.1207173371 1.1410234273 1.1612359601 
1.1813313857 1.2012879601 0.72100484805 0.73038790563 0.74000581268 0.7498494333 0.75991064646 0.77018232933 0.78065829095 
0.79133316127 0.80220224242 0.81326132989 0.82450651226 0.83593395844 0.84753970137 0.85931942657 0.8712682734 0.88338065572 
0.95960744393 0.97774441508 0.99633308343 1.0153210481 1.0346551826 1.0542823051 1.0741498055 1.0942062195 1.1144017394 