# vtk DataFile Version 5.1
vtk output
ASCII
DATASET POLYDATA
POINTS 252 float
0.635377 0.194239 -0.143654 0.266168 0.322312 0.164309 0.657622 0.2651 -0.177924 
0.533034 0.281275 -0.082268 0.211502 0.355551 0.136593 0.529554 0.269318 -0.143622 
0.398324 0.29929 0.057083 0.626143 0.100388 -0.319416 0.46307 0.320774 -0.088183 
0.54236 0.171484 -0.034985 0.442028 0.248666 0.05282 0.455304 0.142542 0.210427 
0.488357 0.047156 0.302394 0.535112 0.208209 -0.185547 0.593703 -0.089099 0.275531 
0.358231 0.335619 0.01171 0.651309 0.179214 -0.223041 0.383306 0.15965 0.286059 
0.551899 -0.052191 0.239594 0.469458 0.211234 -0.165194 0.559372 0.249342 -0.22706 
0.281425 0.365649 0.08006 0.482321 -0.041518 0.287808 0.353183 -0.001277 0.294272 
0.327033 0.255511 0.227557 0.315205 0.297582 0.123872 0.622216 0.056562 -0.253771 
0.582693 0.174548 -0.156241 0.586212 -0.141845 0.281953 0.531771 -0.100747 0.206653 
0.604307 0.086513 -0.228145 0.26282 0.257336 0.289367 0.557776 0.113927 -0.25222 
0.211063 0.222147 0.319992 0.336087 0.212894 0.117113 0.618017 -0.011769 -0.419787 
0.572133 0.076494 -0.348754 0.470542 0.130566 -0.064473 0.495551 -0.271267 0.252902 
0.492247 -0.001291 0.140886 0.368 -0.064183 0.235603 0.197335 0.338823 0.200359 
0.401263 0.132785 0.151403 0.241581 0.383623 0.007563 0.331312 0.158991 0.045709 
0.466363 -0.125836 0.239952 0.638028 -0.03454 -0.362758 0.413857 -0.074348 0.183124 
0.365355 0.205542 -0.15693 0.546455 -0.020397 -0.365398 0.340039 0.282577 -0.116034 
0.633986 -0.104088 -0.40862 0.425474 0.134075 -0.138817 0.499794 -0.104131 0.309519 
0.213131 0.323248 -0.05097 0.575656 -0.040705 -0.314676 0.61949 -0.08213 -0.466619 
0.346108 0.116981 -0.092316 0.508343 -0.244349 0.219696 0.276651 0.07134 0.316479 
0.165949 0.165671 0.295731 0.234652 0.204934 -0.100619 0.54647 -0.139456 0.189852 
0.255947 0.004001 0.240925 0.246847 0.149761 0.013916 0.576499 -0.127226 -0.451692 
0.442834 -0.324045 0.146456 0.107489 0.333132 0.158273 0.390312 -0.341705 0.250035 
0.308957 -0.001548 0.145976 0.176234 0.099677 0.228033 0.569041 -0.13748 -0.411869 
0.276868 0.129328 -0.156125 0.286962 0.078931 -0.106741 0.18705 0.243425 -0.050536 
0.515117 -0.163891 -0.444489 0.281921 0.091192 0.108028 0.281682 -0.071502 0.146047 
0.492868 -0.097618 -0.479341 0.271175 -0.189407 0.219649 0.329798 -0.152446 0.208781 
0.15813 0.15348 0.00056 0.371639 0.046579 -0.170839 0.148735 0.092501 0.132653 
0.224257 -0.002198 -0.144148 0.518792 -0.062424 -0.435434 0.493217 -0.112517 -0.343101 
0.440018 -0.412707 0.224602 0.052175 0.194299 0.201204 0.307023 0.047335 -0.236896 
0.102794 0.09487 0.187434 0.393556 -0.300261 0.179099 0.134066 0.009657 0.081101 
0.199002 0.103764 -0.204698 0.245531 -0.007079 -0.184233 0.318392 -0.135111 0.12022 
0.071979 0.29996 0.054596 0.243413 0.050613 0.026206 0.44543 -0.118446 -0.420228 
0.221024 -0.171927 0.190492 0.211359 -0.130475 0.218004 0.143318 0.069051 -0.044184 
0.342322 -0.3676 0.193463 0.186987 -0.161047 0.091746 0.113581 -0.046787 0.173451 
0.173849 0.032743 -0.217103 0.381159 -0.474867 0.159078 0.073778 0.263477 0.006021 
-0.03836 0.231205 -0.044497 0.216243 -0.209441 0.118765 0.166294 -0.100349 0.185801 
0.133853 0.066285 -0.135817 0.098118 -0.059375 -0.050521 0.094699 0.141472 -0.148495 
0.039872 0.058514 0.215423 0.360345 -0.497325 0.21237 0.115261 0.188188 -0.049264 
0.3447 -0.39359 0.145892 0.176661 -0.241229 0.053005 0.127825 -0.269674 0.121494 
0.207584 -0.409578 0.209887 0.135983 -0.057599 0.106298 0.288005 -0.494224 0.164371 
0.179381 -0.108533 -0.197063 0.103584 -0.076316 -0.121277 -0.050272 0.122513 0.201897 
0.152514 0.020006 -0.166848 0.265728 -0.452696 0.103575 0.130014 -0.355905 0.079411 
0.207856 -0.07712 -0.259656 0.25378 -0.368716 0.140112 0.058654 0.037797 -0.199447 
0.239459 0.053624 -0.214005 0.304947 -0.455993 0.226238 0.095099 -0.179665 0.0742 
-0.090374 0.178857 -0.173139 0.123048 -0.155084 -0.325901 0.116092 -0.077774 -0.247211 
0.092968 -0.039415 -0.174641 -0.171306 0.119506 0.123374 -0.220077 0.063244 0.193793 
0.197114 -0.150507 -0.231515 0.048373 -0.163146 0.12508 0.107997 -0.19284 0.13266 
-0.16116 0.187965 0.086696 0.101712 -0.155855 0.029967 -0.1228 -0.054006 0.218358 
-0.135901 0.003086 0.236927 -0.004692 -0.158864 -0.143695 0.114151 -0.239613 -0.268281 
-0.040157 -0.138577 0.151683 -0.182585 0.200465 -0.123453 0.104625 -0.1334 -0.232229 
0.131054 -0.379983 0.004125 0.110314 -0.230378 -0.23025 -0.11508 0.115578 -0.189155 
-0.237958 0.163629 0.019086 0.010476 -0.290493 0.022037 0.065746 -0.14431 -0.258463 
-0.054447 -0.286828 0.119877 -0.02445 -0.231146 -0.025855 -0.094717 -0.20653 0.191751 
-0.017653 0.022916 -0.213751 -0.030399 -0.243824 0.06024 0.065055 -0.296991 0.041626 
0.066666 -0.378471 0.077144 0.140789 -0.203207 -0.306004 0.072132 -0.403122 -0.007455 
-0.296092 0.036957 0.155899 -0.013858 -0.070948 -0.241747 -0.060847 0.018747 -0.279094 
-0.267595 0.159262 -0.08154 -0.020445 -0.172498 -0.315561 -0.19237 -0.101801 0.235631 
-0.034751 -0.116251 -0.30448 -0.023907 -0.158738 -0.221026 0.0803 -0.341235 -0.035491 
-0.282202 -0.087153 0.169158 -0.264469 0.106202 -0.175298 -0.041246 -0.351238 -0.005984 
-0.175351 0.123942 -0.234441 -0.044044 -0.369702 0.059544 -0.228088 -0.199667 0.175863 
-0.08751 -0.200259 -0.254729 -0.113396 -0.30678 -0.024028 -0.207167 0.017707 -0.279752 
-0.254628 -0.190662 0.117005 -0.388743 0.140361 -0.028069 -0.154413 -0.104864 -0.289302 
-0.245779 -0.027574 -0.246542 -0.39747 0.083896 0.100685 -0.377556 0.113216 -0.113848 
-0.094642 -0.187512 -0.296691 -0.142859 -0.273196 0.133622 -0.423284 0.130094 0.059068 
-0.17132 -0.254702 -0.114137 -0.252798 -0.149554 -0.260974 -0.39278 -0.003031 0.136881 
-0.190972 -0.310226 0.045729 -0.498234 0.121422 0.145761 -0.606317 0.207621 0.115829 
-0.319181 0.060866 -0.189113 -0.235584 -0.269016 -0.140267 -0.50251 0.205531 -0.021254 
-0.375514 -0.085192 0.134669 -0.251746 -0.242556 -0.229974 -0.421713 -0.132034 0.041105 
-0.265002 -0.277645 0.068288 -0.274038 -0.318969 -0.050764 -0.656604 0.247545 0.029711 
-0.359418 -0.216307 0.02091 -0.339595 -0.082009 -0.203976 -0.665989 0.107154 0.151624 
-0.338012 -0.209856 -0.191018 -0.644965 0.197193 -0.054162 -0.498259 0.048978 -0.118117 
-0.509549 -0.032291 0.082846 -0.673513 0.14844 -0.091257 -0.318108 -0.243549 -0.13301 
-0.47158 -0.119481 -0.013552 -0.707714 0.247171 -0.009497 -0.639887 -0.018528 0.105556 
-0.427707 -0.216988 -0.016361 -0.427828 -0.170593 -0.087524 -0.714498 0.166515 0.149813 
-0.41563 -0.130298 -0.193291 -0.582941 0.058012 -0.064779 -0.451633 -0.082221 -0.060534 
-0.46548 -0.069129 -0.121611 -0.590256 0.004789 0.042472 -0.600794 -0.008015 -0.004499 
-0.642546 0.040012 -0.060497 -0.716541 0.000257 0.122586 -0.627554 0.088184 -0.108114 
-0.668597 -0.008874 0.020516 -0.671044 0.019255 -0.095791 -0.689877 0.109518 -0.121896 
-0.824042 0.069474 0.122376 -0.803688 0.168596 0.084313 -0.734257 -0.089593 0.025689 
-0.747451 -0.092604 -0.071466 -0.807884 0.13899 -0.084298 -0.841745 -0.010325 0.074408 
-0.85235 0.152251 -0.026188 -0.801235 -0.097878 0.043957 -0.856973 0.06843 0.006921 
-0.80213 -0.09443 -0.123957 -0.761685 -0.011131 -0.158111 -0.851325 0.009788 -0.133393 
-0.891842 0.040755 -0.061291 -0.82448 -0.13444 -0.026104 -0.911298 0.002461 0.004628 

POLYGONS 501 1500
OFFSETS vtktypeint64
0 3 6 9 12 15 18 21 24 
27 30 33 36 39 42 45 48 51 
54 57 60 63 66 69 72 75 78 
81 84 87 90 93 96 99 102 105 
108 111 114 117 120 123 126 129 132 
135 138 141 144 147 150 153 156 159 
162 165 168 171 174 177 180 183 186 
189 192 195 198 201 204 207 210 213 
216 219 222 225 228 231 234 237 240 
243 246 249 252 255 258 261 264 267 
270 273 276 279 282 285 288 291 294 
297 300 303 306 309 312 315 318 321 
324 327 330 333 336 339 342 345 348 
351 354 357 360 363 366 369 372 375 
378 381 384 387 390 393 396 399 402 
405 408 411 414 417 420 423 426 429 
432 435 438 441 444 447 450 453 456 
459 462 465 468 471 474 477 480 483 
486 489 492 495 498 501 504 507 510 
513 516 519 522 525 528 531 534 537 
540 543 546 549 552 555 558 561 564 
567 570 573 576 579 582 585 588 591 
594 597 600 603 606 609 612 615 618 
621 624 627 630 633 636 639 642 645 
648 651 654 657 660 663 666 669 672 
675 678 681 684 687 690 693 696 699 
702 705 708 711 714 717 720 723 726 
729 732 735 738 741 744 747 750 753 
756 759 762 765 768 771 774 777 780 
783 786 789 792 795 798 801 804 807 
810 813 816 819 822 825 828 831 834 
837 840 843 846 849 852 855 858 861 
864 867 870 873 876 879 882 885 888 
891 894 897 900 903 906 909 912 915 
918 921 924 927 930 933 936 939 942 
945 948 951 954 957 960 963 966 969 
972 975 978 981 984 987 990 993 996 
999 1002 1005 1008 1011 1014 1017 1020 1023 
1026 1029 1032 1035 1038 1041 1044 1047 1050 
1053 1056 1059 1062 1065 1068 1071 1074 1077 
1080 1083 1086 1089 1092 1095 1098 1101 1104 
1107 1110 1113 1116 1119 1122 1125 1128 1131 
1134 1137 1140 1143 1146 1149 1152 1155 1158 
1161 1164 1167 1170 1173 1176 1179 1182 1185 
1188 1191 1194 1197 1200 1203 1206 1209 1212 
1215 1218 1221 1224 1227 1230 1233 1236 1239 
1242 1245 1248 1251 1254 1257 1260 1263 1266 
1269 1272 1275 1278 1281 1284 1287 1290 1293 
1296 1299 1302 1305 1308 1311 1314 1317 1320 
1323 1326 1329 1332 1335 1338 1341 1344 1347 
1350 1353 1356 1359 1362 1365 1368 1371 1374 
1377 1380 1383 1386 1389 1392 1395 1398 1401 
1404 1407 1410 1413 1416 1419 1422 1425 1428 
1431 1434 1437 1440 1443 1446 1449 1452 1455 
1458 1461 1464 1467 1470 1473 1476 1479 1482 
1485 1488 1491 1494 1497 1500 
CONNECTIVITY vtktypeint64
0 9 27 174 166 172 105 132 137 
174 172 188 135 131 162 135 162 155 
178 185 189 30 27 32 27 13 32 
132 136 137 136 129 166 158 136 174 
0 2 3 3 2 5 5 13 19 
19 13 52 13 27 52 72 82 89 
132 129 136 3 5 8 5 19 8 
8 19 50 50 19 48 19 52 48 
72 89 93 93 89 132 93 132 105 
162 169 174 50 48 61 170 162 174 
170 174 185 185 174 188 54 50 61 
180 162 170 180 155 162 185 180 170 
178 180 185 135 155 151 164 118 176 
176 118 153 212 237 232 221 212 232 
204 197 216 204 216 206 177 197 204 
177 168 197 146 140 168 140 139 168 
125 140 147 125 139 140 210 204 206 
147 114 125 88 125 114 90 88 114 
33 88 60 210 206 222 186 210 207 
186 204 210 90 60 88 70 60 90 
59 60 70 17 31 33 17 24 31 
198 207 210 90 114 104 157 176 179 
176 167 179 176 153 167 99 119 128 
99 100 119 100 77 110 47 45 40 
18 12 22 167 165 181 128 119 165 
128 109 99 80 95 77 29 45 47 
14 18 22 53 14 22 153 128 167 
128 165 167 62 91 45 29 62 45 
14 28 62 18 14 29 14 62 29 
62 66 91 62 58 66 161 173 182 
79 100 99 79 80 100 80 77 100 
22 40 45 22 45 53 28 14 53 
146 168 173 98 75 86 30 49 55 
5 2 20 51 71 65 71 51 85 
65 71 75 7 26 46 46 55 51 
55 49 51 86 71 85 86 85 98 
7 16 26 36 20 7 20 36 32 
30 32 49 2 16 7 13 20 32 
20 2 7 13 5 20 56 46 51 
56 51 65 35 56 78 56 65 78 
65 75 78 78 75 98 7 46 35 
35 46 56 49 35 85 49 85 51 
85 35 78 85 78 98 7 35 36 
36 49 32 36 35 49 173 168 177 
161 146 173 147 140 146 177 204 186 
182 177 186 173 177 182 150 146 161 
114 147 146 154 123 152 59 33 60 
193 182 186 161 182 193 104 114 146 
59 70 63 23 17 59 17 33 59 
193 186 207 198 193 207 159 161 193 
150 161 159 142 146 150 40 23 63 
23 59 63 12 17 23 181 159 198 
198 159 193 100 110 143 119 100 143 
40 22 23 22 12 23 165 159 181 
165 164 159 15 43 21 107 74 116 
74 81 116 54 74 107 6 15 21 
211 196 213 211 213 225 101 111 116 
116 81 101 74 64 81 61 64 74 
196 205 213 57 64 61 10 3 6 
205 183 202 196 183 205 192 183 196 
175 148 183 169 148 175 138 148 169 
138 124 148 84 126 123 111 124 138 
111 101 124 37 64 57 9 10 37 
9 3 10 154 175 183 154 152 175 
123 126 152 82 73 84 149 154 183 
141 123 154 68 45 91 68 53 45 
160 184 195 221 239 240 240 239 250 
239 244 250 190 194 199 216 199 212 
216 212 221 229 216 221 229 221 234 
234 221 240 221 232 239 239 232 244 
244 251 250 199 200 224 199 224 212 
237 245 232 232 242 244 232 245 242 
244 242 251 212 224 237 224 238 237 
112 145 148 148 145 160 148 160 195 
28 53 38 120 130 127 117 127 130 
120 102 130 102 117 130 102 91 117 
91 66 117 91 102 68 38 87 66 
66 58 38 28 38 58 62 28 58 
127 106 122 117 106 127 117 66 106 
66 87 106 53 68 38 127 122 120 
133 120 122 133 102 120 68 133 87 
68 102 133 87 38 68 115 133 122 
115 87 133 106 87 115 106 115 122 
16 2 0 16 30 26 0 27 30 
16 0 30 26 30 55 26 55 46 
71 86 75 178 201 191 171 178 191 
171 180 178 108 135 151 171 155 180 
151 155 171 108 116 135 43 54 96 
201 178 189 113 131 135 113 135 116 
43 50 54 15 50 43 189 196 211 
188 196 189 116 111 113 54 61 74 
8 50 15 6 8 15 188 192 196 
189 185 188 131 138 162 113 111 131 
73 93 126 107 116 108 3 8 6 
188 172 192 169 158 174 138 169 162 
152 126 137 96 54 107 201 189 211 
211 225 228 67 43 96 96 107 108 
156 108 151 215 201 211 215 211 228 
226 215 228 156 151 171 156 171 187 
171 191 187 191 201 215 214 191 215 
215 226 217 236 233 235 236 235 247 
247 235 240 247 240 246 187 191 203 
203 191 214 214 215 217 217 226 233 
217 233 236 248 236 247 247 246 248 
241 217 236 241 236 248 209 203 214 
220 209 214 220 214 217 220 217 241 
243 220 241 111 138 131 126 105 137 
126 93 105 73 126 84 73 72 93 
73 82 72 61 48 57 48 52 57 
172 183 192 158 169 175 152 158 175 
158 152 137 94 123 141 132 94 129 
132 89 94 82 84 94 52 37 57 
52 27 37 9 37 27 0 3 9 
149 183 172 166 149 172 137 136 158 
129 141 166 129 94 141 89 82 94 
94 84 123 166 154 149 166 141 154 
227 219 230 219 229 230 194 156 187 
139 194 190 139 144 194 194 144 156 
67 96 144 88 67 144 41 1 4 
219 227 223 41 24 1 24 25 1 
25 24 34 218 222 223 11 34 24 
92 121 112 97 92 112 101 97 112 
76 92 97 44 34 76 34 42 76 
88 144 125 218 208 222 202 208 218 
25 6 21 213 223 225 213 218 223 
34 6 25 163 157 160 208 198 210 
83 90 104 42 11 39 42 39 69 
112 121 145 184 198 208 195 184 208 
195 208 202 11 42 34 76 42 69 
76 69 70 76 83 92 92 104 121 
17 11 24 76 70 83 83 104 92 
208 210 222 83 70 90 31 24 41 
31 41 33 33 41 67 206 219 222 
222 219 223 33 67 88 139 125 144 
206 216 219 219 216 229 168 139 190 
168 190 197 197 190 199 197 199 216 
205 218 213 202 218 205 81 97 101 
81 64 97 44 97 64 44 76 97 
37 10 44 34 44 10 10 6 34 
195 202 183 148 195 183 124 112 148 
124 101 112 37 44 64 245 238 243 
237 238 245 224 209 238 242 245 251 
200 209 224 203 209 200 95 99 109 
250 251 248 194 203 200 199 194 200 
240 250 246 234 240 235 235 231 234 
230 234 231 230 229 234 25 21 1 
142 150 159 69 63 70 160 142 163 
159 163 142 163 159 164 160 145 142 
142 121 104 121 142 145 110 77 103 
69 40 63 184 179 198 160 179 184 
179 181 198 160 157 179 164 157 163 
119 143 164 143 134 164 118 164 134 
103 118 134 109 118 103 103 95 109 
95 79 99 47 40 69 39 47 69 
39 12 18 12 39 11 167 181 179 
157 164 176 165 119 164 153 109 128 
153 118 109 80 79 95 103 77 95 
39 29 47 39 18 29 104 146 142 
143 110 103 12 11 17 238 220 243 
238 209 220 251 245 249 223 228 225 
1 21 4 4 21 43 223 227 228 
4 43 67 41 4 67 144 96 108 
144 108 156 227 230 228 228 230 231 
194 187 203 226 228 231 233 231 235 
226 231 233 174 136 166 248 246 250 
241 248 249 251 249 248 243 241 245 
245 241 249 143 103 134 
POINT_DATA 252
SCALARS k float
LOOKUP_TABLE default
-0.0840304 -0.0549246 1.75462 -0.259778 -0.0199817 -0.624027 0.00184643 -0.161457 0.365381 
0.438951 0.0512671 0.326251 0.605414 -1.68441 1.41923 -0.230069 0.0090816 -0.0652051 
-0.651823 -0.166861 0.564532 0.139451 -0.976442 -0.00454599 -0.0924579 -0.396598 0.0815849 
-1.18893 0.807911 -1.12099 -0.35357 0.217296 -0.247277 0.613741 -1.49103 -0.106625 
0.00628036 0.135555 -0.274685 0.689025 -0.071983 0.277084 -0.237302 0.642728 -1.0488 
-2.36997 0.0271989 0.096027 0.259398 -0.821444 -0.0330486 0.314183 0.255741 0.284477 
0.133527 0.685628 1.19117 0.451656 -0.0039798 0.237429 0.12172 0.502949 0.524635 
0.335515 -0.85788 0.0854545 0.191807 0.195482 -0.238592 0.198884 -0.694448 -0.65058 
1.35775 1.28514 -0.936873 1.35203 -1.96096 1.61827 1.2891 1.65361 2.02564 
0.412201 2.74768 0.15326 -0.120965 -1.88231 2.95925 0.403127 -0.504788 1.45454 
-1.20125 -0.17404 -0.532018 1.20767 -1.25536 1.25805 -0.139522 -0.0370108 1.91527 
-1.13582 0.445881 -0.416459 -1.1121 -0.651644 0.430026 -0.163665 0.545036 -0.248013 
-0.19773 -0.792395 1.25109 0.346182 -0.658699 0.397156 0.0566397 1.13999 -1.19261 
-0.725139 -0.0596387 -0.219788 2.62934 0.237879 0.658803 -0.186876 0.416421 -0.116595 
0.546766 1.70776 0.202147 0.125539 1.3645 0.19536 -0.812836 -0.0931281 1.32021 
0.36892 0.0598338 -0.342354 0.169032 0.0647128 0.20971 0.402167 -0.178874 -0.204975 
-0.300361 0.483351 -0.473405 0.401264 -0.332475 0.843441 0.013188 0.464849 -0.941625 
0.928885 0.584371 -0.604865 0.00627762 -1.02592 -1.50899 -1.17042 -1.06427 0.321344 
-0.375616 -0.666167 -2.92656 -0.364334 0.59616 0.962298 -0.306527 -1.54623 0.372607 
-0.403498 0.0900887 0.549633 -0.630007 -1.89531 0.6983 -0.237 -0.178751 -0.519668 
0.667466 0.186248 0.428482 -0.948026 -0.544027 0.386677 -0.182577 -0.328816 -0.0326979 
-0.168446 -0.288097 -0.348419 0.277731 -0.00985157 -0.435651 -0.10331 0.010676 -0.306413 
-0.350321 0.152963 0.295397 0.033942 -0.144063 0.212107 0.062065 0.548602 -0.0782298 
0.333349 0.508642 0.190277 -0.178965 -0.192217 0.0402467 -0.0357862 -0.0588641 -0.322351 
-0.695807 -0.504654 -0.0706588 -0.533538 0.663715 -0.533909 0.626966 -0.101575 0.474435 
0.726817 -0.177321 0.51101 -0.732533 0.374084 -0.541112 -0.815277 -0.355427 0.405241 
-0.191684 -0.102502 0.0861379 1.05632 0.312776 0.0440741 0.198102 -0.0925103 0.413492 
0.882914 0.353517 -1.05337 0.900891 0.554441 0.61163 0.333732 1.19917 1.13143 

FIELD FieldData 7
h 1 252 float
2.47479 3.58276 2.81012 0.168293 4.0185 1.31756 2.37615 2.48491 2.41643 
2.12702 1.65691 0.383626 2.14465 0.264358 5.48556 2.78469 0.391454 2.26817 
0.208239 -0.790451 -0.488287 3.28528 1.13123 1.15753 2.28648 1.59299 1.5444 
-2.57287 7.58848 -1.14627 -0.683968 3.53832 -3.31524 2.53586 -2.38738 -0.630044 
0.536374 -1.17167 0.083316 0.350441 -0.419848 4.82379 -1.11705 2.6001 -1.45311 
-2.59908 1.3892 -2.57723 0.351481 7.07601 1.42245 0.349487 -0.154114 1.02099 
-0.00114968 1.13508 6.52277 -2.31001 1.89361 1.12075 -1.16428 1.03989 0.14985 
-0.172332 -2.87842 14.4493 1.94924 4.61439 0.988559 -1.87835 0.00215805 0.909021 
-0.774647 4.53203 0.264557 1.72578 -2.47397 1.77547 2.16614 -0.426664 1.66311 
0.483539 -1.49603 0.60715 -1.44685 0.83641 1.15605 4.65091 1.86555 0.75946 
0.634553 -4.03141 0.137549 2.77533 -0.24701 -0.91746 1.949 -1.57894 10.1004 
1.41968 1.00031 0.766427 0.404595 3.97396 1.63849 0.232629 3.02948 0.572955 
2.16788 5.4274 3.15077 1.88688 -1.53512 1.87876 1.07719 0.652 1.12409 
-0.376833 -3.2654 1.15048 -0.358666 -0.564386 3.96598 0.352993 0.133037 2.18463 
14.3031 0.232482 3.76263 8.79436 0.140326 2.17972 0.741782 0.284003 -9.65495 
1.7084 0.772521 0.600341 2.49239 2.27295 1.87277 0.124361 2.38934 0.326972 
3.99442 0.385151 1.53451 1.58102 0.654679 2.38936 1.2992 1.93819 -2.48163 
-0.129289 0.545685 1.401 2.63597 -4.09658 0.396572 1.92135 1.09333 1.87838 
1.8436 -0.737688 -2.52003 0.0484516 7.6564 4.95233 1.59216 1.55188 2.30604 
1.65383 3.74274 1.67827 1.98274 -2.74693 0.848529 1.32211 1.41424 2.1269 
1.63634 4.48002 2.52585 0.968258 1.44602 3.3358 2.8303 1.97075 3.29315 
2.97906 1.82388 0.788577 3.68093 3.02984 3.32952 2.30631 3.80313 0.831533 
4.10663 1.09969 4.82597 1.79798 2.79973 2.37111 2.3074 3.63101 2.28643 
2.68941 4.01619 4.4274 2.3663 2.58814 0.556766 4.15074 0.859351 1.66488 
0.993792 1.22908 3.68515 2.66438 1.75164 1.67235 3.84881 3.15989 2.33322 
3.68874 0.990918 1.35397 2.59295 0.933166 0.408328 0.922929 1.49729 1.35653 
0.298891 -0.2909 2.01705 0.920014 5.56865 1.34865 -0.878107 2.09532 1.88542 
4.5932 2.11518 5.94611 5.04821 1.18098 2.84428 1.50618 6.86946 8.61591 

kmin 1 252 float
4.98358 6.45053 6.55356 1.53742 7.79073 3.03297 3.17478 4.60944 4.02881 
3.8233 2.5475 2.79914 2.76304 2.11354 8.77411 4.89714 1.41913 3.72493 
1.63442 -0.447286 0.781212 6.24398 2.92862 1.98481 3.43293 1.66803 2.15239 
-0.994168 13.9501 -0.869788 0.381812 6.32597 -2.07534 4.73746 0.581296 0.943648 
1.65577 -0.342409 0.828408 0.90624 1.34958 9.42061 -0.981176 4.61745 -0.561837 
-0.926831 1.95826 -2.03115 2.68273 18.8509 2.70147 1.56518 1.70699 1.99064 
0.403048 3.35871 13.9253 0.746469 2.323 1.73238 -0.367965 3.82384 1.05812 
2.53955 -1.48886 29.5373 2.81632 9.52867 2.13753 -1.37206 2.406 1.72796 
0.230353 12.3695 2.53166 3.75163 -0.779788 5.82013 4.64317 0.604034 4.60467 
3.0457 -0.558705 1.92111 1.0246 1.45649 2.55111 8.0584 3.67139 2.23734 
1.15266 -0.734728 1.26397 5.86431 0.563847 1.96795 3.74783 -0.299958 21.7105 
2.48933 1.75892 2.37114 0.810889 7.86146 2.22884 0.779592 5.42489 1.19585 
4.34574 8.9747 9.82837 4.36385 0.0204458 3.14202 1.71588 1.42068 1.87762 
-0.153687 2.28123 2.79469 0.385799 -0.0199745 6.8049 0.570918 0.793905 4.53108 
32.1101 1.3173 4.51019 12.8636 1.5703 3.02175 1.99258 0.808424 6.67856 
2.65009 1.84031 0.884027 3.92861 5.00899 3.76495 1.96585 3.37702 0.565637 
8.51146 0.919267 2.27306 2.6995 1.64965 3.42554 2.02565 3.72451 -0.553199 
0.631487 0.995375 2.5936 5.73399 0.0465728 0.907686 2.5874 2.03138 2.42938 
2.87537 -0.535119 -2.27772 1.01573 10.6844 8.22641 3.33621 2.8515 2.98009 
3.53631 5.59836 2.74268 2.04457 -0.320779 1.35587 2.38008 2.63032 2.96817 
2.71708 7.62764 4.34534 2.55932 2.98863 5.7762 5.4883 4.47416 5.74542 
5.58565 4.04662 1.48998 6.19671 5.09665 7.11592 2.87647 6.85595 1.57031 
6.87497 2.1201 9.99434 3.31552 3.36009 4.79612 4.55364 4.36324 4.59756 
4.79253 5.65804 9.29266 4.12463 4.73388 1.49534 7.4952 1.87813 3.58869 
2.23128 3.18346 6.18926 5.76544 4.02135 3.74521 7.10122 6.04572 5.0443 
6.80441 2.61127 3.27875 5.39263 2.3001 1.54092 2.35787 3.84962 4.74098 
2.42541 6.19096 5.10383 2.3313 10.4241 6.97359 7.85745 4.65967 3.70951 
8.58822 4.71513 11.851 11.6692 5.61687 6.32143 2.93584 14.8254 12.7154 

kmax 1 252 float
-0.0340095 0.714994 -0.933313 -1.20083 0.246274 -0.397844 1.57753 0.360383 0.804053 
0.430743 0.766315 -2.03189 1.52625 -1.58483 2.19701 0.672235 -0.636217 0.811405 
-1.21794 -1.13362 -1.75779 0.326576 -0.666154 0.33025 1.14003 1.51796 0.93641 
-4.15158 1.22686 -1.42276 -1.74975 0.750672 -4.55514 0.334265 -5.35606 -2.20374 
-0.583018 -2.00094 -0.661776 -0.205358 -2.18927 0.226963 -1.25293 0.582747 -2.34439 
-4.27133 0.820141 -3.12332 -1.97977 -4.69889 0.14343 -0.866207 -2.01522 0.0513452 
-0.405347 -1.08855 -0.879781 -5.36649 1.46421 0.509116 -1.9606 -1.74406 -0.758422 
-2.88422 -4.26798 -0.63878 1.08216 -0.299881 -0.160412 -2.38463 -2.40168 0.0900819 
-1.77965 -3.30548 -2.00254 -0.300064 -4.16815 -2.26919 -0.310893 -1.45736 -1.27845 
-2.07862 -2.43335 -0.706813 -3.91829 0.216328 -0.239013 1.24341 0.0597099 -0.718425 
0.116448 -7.3281 -0.988869 -0.313643 -1.05787 -3.80287 0.150165 -2.85792 -1.50962 
0.350031 0.241691 -0.838285 -0.00169832 0.0864702 1.04814 -0.314333 0.634081 -0.0499391 
-0.00998788 1.8801 -3.52683 -0.590095 -3.09069 0.615509 0.438492 -0.116682 0.370571 
-0.599978 -8.81203 -0.493727 -1.10313 -1.1088 1.12707 0.135067 -0.527832 -0.161822 
-3.50399 -0.85234 3.01506 4.72513 -1.28965 1.33768 -0.509015 -0.240417 -25.9885 
0.766712 -0.295271 0.316655 1.05618 -0.46309 -0.019407 -1.71713 1.40166 0.088307 
-0.522612 -0.148964 0.795963 0.462536 -0.340289 1.35318 0.572743 0.151868 -4.41005 
-0.890066 0.0959957 0.208404 -0.462055 -8.23973 -0.114541 1.25529 0.15528 1.32739 
0.811824 -0.940256 -2.76233 -0.91883 4.62843 1.67825 -0.151879 0.252256 1.632 
-0.228649 1.88712 0.613859 1.92092 -5.17308 0.341194 0.264144 0.198163 1.28564 
0.5556 1.33241 0.706361 -0.622805 -0.0965834 0.895389 0.172306 -0.532665 0.840879 
0.372472 -0.398867 0.0871776 1.16514 0.963024 -0.456865 1.73616 0.750318 0.0927569 
1.33829 0.0792808 -0.342402 0.280447 2.23937 -0.0538909 0.0611575 2.89878 -0.024712 
0.586294 2.37435 -0.437871 0.60796 0.442392 -0.381809 0.806281 -0.159434 -0.258933 
-0.243693 -0.725295 1.18103 -0.436668 -0.518064 -0.400519 0.596401 0.274063 -0.377854 
0.573072 -0.629433 -0.570809 -0.206731 -0.43377 -0.724259 -0.512014 -0.855048 -2.02792 
-1.82763 -6.77276 -1.06972 -0.491275 0.713182 -4.2763 -9.61366 -0.469024 0.0613239 
0.598179 -0.48477 0.0412407 -1.57279 -3.25491 -0.632872 0.07652 -1.08651 4.51641 

hks 16 252 double
0.36283207795 0.36520798597 0.36768262265 0.37025661097 0.37293086878 0.37570664406 0.37858553213 0.38156947389 0.38466073458 
0.38786186375 0.39117563755 0.3946049855 0.39815290438 0.40182236237 0.40561619682 0.40953700957 0.29713194826 0.29363745775 
0.29007286947 0.28644760251 0.28277137772 0.27905416838 0.2753061438 0.27153760485 0.26775891103 0.26398039935 0.2602122957 
0.25646462013 0.25274708818 0.24906901069 0.24543919495 0.24186585047 0.38910557288 0.39180501135 0.39461969516 0.39755156873 
0.40060292845 0.40377642953 0.40707506905 0.41050214518 0.41406119326 0.41775590082 0.42159000449 0.42556717248 0.42969087722 
0.43396426292 0.43839001319 0.4429702236 0.30551960375 0.30545896809 0.30546622432 0.30554419508 0.30569531864 0.30592167553 
0.30622502565 0.30660685415 0.30706842403 0.30761083306 0.30823507268 0.30894208621 0.30973282412 0.31060829395 0.31156960299 
0.31261799195 0.29316372065 0.29020523169 0.28710984286 0.28388667016 0.2805455014 0.27709673064 0.27355128826 0.26992056625 
0.26621633792 0.26245067172 0.25863583894 0.25478421538 0.25090817763 0.2470199948 0.2431317172 0.23925506378 0.31158117359 
0.31368034429 0.31583172395 0.31803467195 0.32028856601 0.32259285241 0.32494709668 0.32735103261 0.32980460749 0.33230802151 
0.33486175941 0.33746661302 0.34012369331 0.34283443132 0.34560056785 0.34842413179 0.24558478889 0.24383179815 0.24209737431 
0.24038977115 0.23871677424 0.23708560376 0.23550283167 0.23397431505 0.23250514723 0.23109962765 0.22976125096 0.22849271549 
0.22729595032 0.22617215992 0.22512188478 0.22414507575 0.49565117263 0.5030168403 0.51056412956 0.51829040632 0.52619274019 
0.5342678275 0.54251191161 0.55092070417 0.55948931083 0.56821216464 0.57708297021 0.58609466094 0.59523937126 0.60450842522 
0.61389234191 0.62338085787 0.29937470922 0.29794375542 0.29659277215 0.29532307547 0.29413520645 0.29302895778 0.29200341799 
0.29105703297 0.29018768409 0.28939278138 0.28866937011 0.28801424812 0.28742409113 0.28689558251 0.28642554392 0.28601106291 
0.34317410204 0.34103254445 0.33904572754 0.33721739347 0.33555032386 0.33404638337 0.33270658121 0.3315311488 0.33051963116 
0.32967098918 0.32898370965 0.32845591945 0.32808550034 0.32787020056 0.32780773974 0.32789590361 0.27059686151 0.26736622045 
0.26425255968 0.26126320126 0.25840459787 0.25568227717 0.25310080013 0.25066373527 0.24837365039 0.24623212289 0.24423976925 
0.24239629386 0.24070055625 0.23915065564 0.23774403033 0.23647756949 0.29306102509 0.29084770871 0.28869848487 0.2866115468 
0.28458479371 0.28261581942 0.28070190951 0.27884004951 0.27702694567 0.2752590597 0.27353265753 0.27184387183 0.27018877712 
0.2685634755 0.26696419069 0.26538736744 0.3501463461 0.34878408703 0.34751216947 0.34632395845 0.34521221823 0.34416928689 
0.34318726056 0.34225818332 0.34137423869 0.34052793867 0.3397123062 0.33892104692 0.33814870661 0.33739081082 0.33664398369 
0.33590604355 0.31572346705 0.31863581195 0.32162354929 0.32468336104 0.32781198221 0.33100628849 0.33426337823 0.33758064624 
0.34095584666 0.3443871432 0.34787314504 0.35141292734 0.35500603608 0.35865247738 0.36235269192 0.3661075159 0.375370001 
0.37924352173 0.38317257788 0.3871667557 0.39123618672 0.3953914086 0.39964321791 0.40400251766 0.40848016251 0.41308680472 
0.41783274397 0.42272778371 0.42778109709 0.43300110497 0.43839536813 0.44397049604 0.31268941339 0.3087708763 0.30489367332 
0.30106651407 0.2972975332 0.29359419536 0.28996321538 0.28641049603 0.2829410853 0.27955915477 0.27626799968 0.27307006096 
0.26996696819 0.26695960239 0.26404817614 0.26123232844 0.43661313409 0.44175130669 0.44703388339 0.4524623918 0.45803848051 
0.46376384367 0.46964013262 0.47566885693 0.48185127775 0.48818829694 0.49468034523 0.50132727309 0.50812824774 0.5150816598 
0.5221850424 0.52943500561 0.31740098577 0.31541296595 0.31341824649 0.31141748495 0.30941116661 0.30739953954 0.30538256183 
0.30335986456 0.30133073337 0.29929411034 0.29724861727 0.29519260001 0.29312419262 0.29104139942 0.28894219161 0.28682461506 
0.35017826956 0.35148609425 0.35279380283 0.35410391978 0.35541938849 0.35674360058 0.35808042107 0.35943420783 0.36080982368 
0.36221263984 0.36364852963 0.36512385156 0.3666454215 0.36822047394 0.36985661262 0.37156175152 0.30940412285 0.30942259985 
0.3094749696 0.30956025151 0.30967713148 0.30982401723 0.30999910458 0.31020045322 0.31042607025 0.31067399949 0.31094241427 
0.31122971114 0.31153460193 0.31185620135 0.31219410766 0.31254847369 0.41098640458 0.41420021196 0.41762292085 0.42125390146 
0.42509199059 0.42913557852 0.43338268318 0.43783100811 0.44247798226 0.4473207805 0.45235632534 0.45758127102 0.46299197275 
0.46858444407 0.47435430644 0.48029673509 0.28211886716 0.27902696982 0.27588274 0.27269630763 0.26947780417 0.26623729393 
0.26298470689 0.25972977251 0.25648195481 0.25325038877 0.25004381866 0.24687053921 0.24373834063 0.24065445877 0.23762553177 
0.23465756452 0.32499596705 0.32759447676 0.33020961833 0.33284237921 0.33549424695 0.33816722457 0.34086383982 0.34358714754 
0.34634072431 0.34912865513 0.35195551136 0.35482632004 0.35774652444 0.36072193629 0.36375868039 0.36686313239 0.3256478425 
0.32468338641 0.32377943303 0.32293230239 0.32213744899 0.32138958433 0.32068281898 0.32001082062 0.31936698437 0.31874461108 
0.31813708937 0.31753807693 0.31694167685 0.3163426047 0.31573634265 0.31511927713 0.29118613297 0.28811293045 0.28500615284 
0.28187538882 0.27872997754 0.27557892518 0.27243082879 0.26929380803 0.26617544502 0.26308273275 0.26002203257 0.25699904106 
0.25401876683 0.2510855177 0.24820289858 0.24537382055 0.26361565255 0.26037015073 0.25713001984 0.25390523475 0.25070550539 
0.247540201 0.24441827515 0.24134819194 0.23833785417 0.23539453449 0.23252481101 0.22973450912 0.22702865158 0.22441141869 